 Entering Gaussian System, Link 0=g09
 Input=ammonia.com
 Output=ammonia.log
 Initial command:
 /global/g09-revC/l1.exe /scratch/cn410101.134352/Gau-62078.inp -scrdir=/scratch/cn410101.134352/
 Entering Link 1 = /global/g09-revC/l1.exe PID=     62079.
  
 Copyright (c) 1988,1990,1992,1993,1995,1998,2003,2009,2011,
            Gaussian, Inc.  All Rights Reserved.
  
 This is part of the Gaussian(R) 09 program.  It is based on
 the Gaussian(R) 03 system (copyright 2003, Gaussian, Inc.),
 the Gaussian(R) 98 system (copyright 1998, Gaussian, Inc.),
 the Gaussian(R) 94 system (copyright 1995, Gaussian, Inc.),
 the Gaussian 92(TM) system (copyright 1992, Gaussian, Inc.),
 the Gaussian 90(TM) system (copyright 1990, Gaussian, Inc.),
 the Gaussian 88(TM) system (copyright 1988, Gaussian, Inc.),
 the Gaussian 86(TM) system (copyright 1986, Carnegie Mellon
 University), and the Gaussian 82(TM) system (copyright 1983,
 Carnegie Mellon University). Gaussian is a federally registered
 trademark of Gaussian, Inc.
  
 This software contains proprietary and confidential information,
 including trade secrets, belonging to Gaussian, Inc.
  
 This software is provided under written license and may be
 used, copied, transmitted, or stored only in accord with that
 written license.
  
 The following legend is applicable only to US Government
 contracts under FAR:
  
                    RESTRICTED RIGHTS LEGEND
  
 Use, reproduction and disclosure by the US Government is
 subject to restrictions as set forth in subparagraphs (a)
 and (c) of the Commercial Computer Software - Restricted
 Rights clause in FAR 52.227-19.
  
 Gaussian, Inc.
 340 Quinnipiac St., Bldg. 40, Wallingford CT 06492
  
  
 ---------------------------------------------------------------
 Warning -- This program may not be used in any manner that
 competes with the business of Gaussian, Inc. or will provide
 assistance to any competitor of Gaussian, Inc.  The licensee
 of this program is prohibited from giving any competitor of
 Gaussian, Inc. access to this program.  By using this program,
 the user acknowledges that Gaussian, Inc. is engaged in the
 business of creating and licensing software in the field of
 computational chemistry and represents and warrants to the
 licensee that it is not a competitor of Gaussian, Inc. and that
 it will not use this program in any manner prohibited above.
 ---------------------------------------------------------------
  

 Cite this work as:
 Gaussian 09, Revision C.01,
 M. J. Frisch, G. W. Trucks, H. B. Schlegel, G. E. Scuseria, 
 M. A. Robb, J. R. Cheeseman, G. Scalmani, V. Barone, B. Mennucci, 
 G. A. Petersson, H. Nakatsuji, M. Caricato, X. Li, H. P. Hratchian, 
 A. F. Izmaylov, J. Bloino, G. Zheng, J. L. Sonnenberg, M. Hada, 
 M. Ehara, K. Toyota, R. Fukuda, J. Hasegawa, M. Ishida, T. Nakajima, 
 Y. Honda, O. Kitao, H. Nakai, T. Vreven, J. A. Montgomery, Jr., 
 J. E. Peralta, F. Ogliaro, M. Bearpark, J. J. Heyd, E. Brothers, 
 K. N. Kudin, V. N. Staroverov, T. Keith, R. Kobayashi, J. Normand, 
 K. Raghavachari, A. Rendell, J. C. Burant, S. S. Iyengar, J. Tomasi, 
 M. Cossi, N. Rega, J. M. Millam, M. Klene, J. E. Knox, J. B. Cross, 
 V. Bakken, C. Adamo, J. Jaramillo, R. Gomperts, R. E. Stratmann, 
 O. Yazyev, A. J. Austin, R. Cammi, C. Pomelli, J. W. Ochterski, 
 R. L. Martin, K. Morokuma, V. G. Zakrzewski, G. A. Voth, 
 P. Salvador, J. J. Dannenberg, S. Dapprich, A. D. Daniels, 
 O. Farkas, J. B. Foresman, J. V. Ortiz, J. Cioslowski, 
 and D. J. Fox, Gaussian, Inc., Wallingford CT, 2010.
 
 ******************************************
 Gaussian 09:  EM64L-G09RevC.01 23-Sep-2011
                 4-Sep-2018 
 ******************************************
 %nproc=2
 Will use up to    2 processors via shared memory.
 %mem=1GB
 -------------------
 #HF STO-3G opt freq
 -------------------
 1/18=20,19=15,38=1/1,3;
 2/9=110,12=2,17=6,18=5,40=1/2;
 3/6=3,11=9,16=1,25=1,30=1,71=1/1,2,3;
 4//1;
 5/5=2,38=5/2;
 6/7=2,8=2,9=2,10=2,28=1/1;
 7//1,2,3,16;
 1/18=20,19=15/3(2);
 2/9=110/2;
 99//99;
 2/9=110/2;
 3/6=3,11=9,16=1,25=1,30=1,71=1/1,2,3;
 4/5=5,16=3/1;
 5/5=2,38=5/2;
 7//1,2,3,16;
 1/18=20,19=15/3(-5);
 2/9=110/2;
 6/7=2,8=2,9=2,10=2,19=2,28=1/1;
 99/9=1/99;
 --------------------
 Ammonia optimization
 --------------------
 Charge =  0 Multiplicity = 1
 Symbolic Z-Matrix:
 N
 H                    1     1.4 
 H                    1     1.4      2     107. 
 H                    1     1.4      3     107.     2     113.     0
 

 GradGradGradGradGradGradGradGradGradGradGradGradGradGradGradGradGradGrad
 Berny optimization.
 Initialization pass.
                           ----------------------------
                           !    Initial Parameters    !
                           ! (Angstroms and Degrees)  !
 --------------------------                            --------------------------
 ! Name  Definition              Value          Derivative Info.                !
 --------------------------------------------------------------------------------
 ! R1    R(1,2)                  1.4            estimate D2E/DX2                !
 ! R2    R(1,3)                  1.4            estimate D2E/DX2                !
 ! R3    R(1,4)                  1.4            estimate D2E/DX2                !
 ! A1    A(2,1,3)              107.0            estimate D2E/DX2                !
 ! A2    A(2,1,4)              105.7744         estimate D2E/DX2                !
 ! A3    A(3,1,4)              107.0            estimate D2E/DX2                !
 ! D1    D(2,1,4,3)            113.8323         estimate D2E/DX2                !
 --------------------------------------------------------------------------------
 Trust Radius=3.00D-01 FncErr=1.00D-07 GrdErr=1.00D-07
 Number of steps in this run=     20 maximum allowed number of steps=    100.
 GradGradGradGradGradGradGradGradGradGradGradGradGradGradGradGradGradGrad

                          Input orientation:                          
 ---------------------------------------------------------------------
 Center     Atomic      Atomic             Coordinates (Angstroms)
 Number     Number       Type             X           Y           Z
 ---------------------------------------------------------------------
      1          7           0        0.000000    0.000000    0.000000
      2          1           0        0.000000    0.000000    1.400000
      3          1           0        1.338827    0.000000   -0.409320
      4          1           0       -0.544381    1.232396   -0.380590
 ---------------------------------------------------------------------
                    Distance matrix (angstroms):
                    1          2          3          4
     1  N    0.000000
     2  H    1.400000   0.000000
     3  H    1.400000   2.250799   0.000000
     4  H    1.400000   2.232857   2.250799   0.000000
 Stoichiometry    H3N
 Framework group  CS[SG(HN),X(H2)]
 Deg. of freedom     4
 Full point group                 CS      NOp   2
 Largest Abelian subgroup         CS      NOp   2
 Largest concise Abelian subgroup CS      NOp   2
                         Standard orientation:                         
 ---------------------------------------------------------------------
 Center     Atomic      Atomic             Coordinates (Angstroms)
 Number     Number       Type             X           Y           Z
 ---------------------------------------------------------------------
      1          7           0        0.000000    0.158813    0.000000
      2          1           0        0.651412   -0.379006    1.116429
      3          1           0       -1.302825   -0.353679    0.000000
      4          1           0        0.651412   -0.379006   -1.116429
 ---------------------------------------------------------------------
 Rotational constants (GHZ):    157.4875029    154.8712053     99.5060940
 Standard basis: STO-3G (5D, 7F)
 There are     6 symmetry adapted basis functions of A'  symmetry.
 There are     2 symmetry adapted basis functions of A"  symmetry.
 Integral buffers will be    131072 words long.
 Raffenetti 1 integral format.
 Two-electron integral symmetry is turned on.
     8 basis functions,    24 primitive gaussians,     8 cartesian basis functions
     5 alpha electrons        5 beta electrons
       nuclear repulsion energy         8.6448663997 Hartrees.
 NAtoms=    4 NActive=    4 NUniq=    3 SFac= 1.78D+00 NAtFMM=   60 NAOKFM=F Big=F
 One-electron integrals computed using PRISM.
 NBasis=     8 RedAO= T  NBF=     6     2
 NBsUse=     8 1.00D-06 NBFU=     6     2
 Harris functional with IExCor=  205 diagonalized for initial guess.
 ExpMin= 1.69D-01 ExpMax= 9.91D+01 ExpMxC= 9.91D+01 IAcc=1 IRadAn=         1 AccDes= 0.00D+00
 HarFok:  IExCor=  205 AccDes= 0.00D+00 IRadAn=         1 IDoV= 1
 ScaDFX=  1.000000  1.000000  1.000000  1.000000
 FoFCou: FMM=F IPFlag=           0 FMFlag=      100000 FMFlg1=           0
         NFxFlg=           0 DoJE=T BraDBF=F KetDBF=T FulRan=T
         Omega=  0.000000  0.000000  1.000000  0.000000  0.000000 ICntrl=     500 IOpCl=  0
         NMat0=    1 NMatS0=    1 NMatT0=    0 NMatD0=    1 NMtDS0=    0 NMtDT0=    0
         I1Cent=           4 NGrid=           0.
 Petite list used in FoFCou.
 Initial guess orbital symmetries:
       Occupied  (A') (A') (A') (A") (A')
       Virtual   (A') (A") (A')
 The electronic state of the initial guess is 1-A'.
 Requested convergence on RMS density matrix=1.00D-08 within 128 cycles.
 Requested convergence on MAX density matrix=1.00D-06.
 Requested convergence on             energy=1.00D-06.
 No special actions if energy rises.
 Keep R1 ints in memory in canonical form, NReq=820435.
 SCF Done:  E(RHF) =  -55.2314424349     A.U. after   10 cycles
             Convg  =    0.3255D-08             -V/T =  2.0096

 **********************************************************************

            Population analysis using the SCF density.

 **********************************************************************

 Orbital symmetries:
       Occupied  (A') (A') (A') (A") (A')
       Virtual   (A') (A") (A')
 The electronic state is 1-A'.
 Alpha  occ. eigenvalues --  -15.35242  -0.94445  -0.42721  -0.42496  -0.32704
 Alpha virt. eigenvalues --    0.30402   0.41660   0.41943
          Condensed to atoms (all electrons):
              1          2          3          4
     1  N    6.500036   0.229761   0.229654   0.229761
     2  H    0.229761   0.729542  -0.010737  -0.011109
     3  H    0.229654  -0.010737   0.727694  -0.010737
     4  H    0.229761  -0.011109  -0.010737   0.729542
 Mulliken atomic charges:
              1
     1  N   -0.189212
     2  H    0.062543
     3  H    0.064126
     4  H    0.062543
 Sum of Mulliken atomic charges =   0.00000
 Mulliken charges with hydrogens summed into heavy atoms:
              1
     1  N    0.000000
 Sum of Mulliken charges with hydrogens summed into heavy atoms =   0.00000
 Electronic spatial extent (au):  <R**2>=             34.5231
 Charge=              0.0000 electrons
 Dipole moment (field-independent basis, Debye):
    X=             -0.0178    Y=             -1.4788    Z=              0.0000  Tot=              1.4789
 Quadrupole moment (field-independent basis, Debye-Ang):
   XX=             -5.7609   YY=             -7.8249   ZZ=             -5.8176
   XY=             -0.0267   XZ=              0.0000   YZ=              0.0000
 Traceless Quadrupole moment (field-independent basis, Debye-Ang):
   XX=              0.7069   YY=             -1.3571   ZZ=              0.6502
   XY=             -0.0267   XZ=              0.0000   YZ=              0.0000
 Octapole moment (field-independent basis, Debye-Ang**2):
  XXX=             -1.2285  YYY=             -0.4049  ZZZ=              0.0000  XYY=              0.0139
  XXY=             -0.6987  XXZ=              0.0000  XZZ=              1.1791  YZZ=             -0.7085
  YYZ=              0.0000  XYZ=              0.0000
 Hexadecapole moment (field-independent basis, Debye-Ang**3):
 XXXX=            -13.5634 YYYY=             -8.1534 ZZZZ=            -13.5056 XXXY=              0.6303
 XXXZ=              0.0000 YYYX=              0.0577 YYYZ=              0.0000 ZZZX=              0.0000
 ZZZY=              0.0000 XXYY=             -3.7594 XXZZ=             -4.5145 YYZZ=             -3.7035
 XXYZ=              0.0000 YYXZ=              0.0000 ZZXY=             -0.5680
 N-N= 8.644866399700D+00 E-N=-1.475093760184D+02  KE= 5.470892582304D+01
 Symmetry A'   KE= 5.257548990988D+01
 Symmetry A"   KE= 2.133435913164D+00
 Calling FoFJK, ICntrl=      2127 FMM=F ISym2X=1 I1Cent= 0 IOpClX= 0 NMat=1 NMatS=1 NMatT=0.
 ***** Axes restored to original set *****
 -------------------------------------------------------------------
 Center     Atomic                   Forces (Hartrees/Bohr)
 Number     Number              X              Y              Z
 -------------------------------------------------------------------
      1        7           0.060585522    0.097644032    0.049059342
      2        1           0.011059221    0.014797080   -0.156081446
      3        1          -0.146062815    0.016196714    0.055866088
      4        1           0.074418072   -0.128637826    0.051156015
 -------------------------------------------------------------------
 Cartesian Forces:  Max     0.156081446 RMS     0.086474869

 GradGradGradGradGradGradGradGradGradGradGradGradGradGradGradGradGradGrad
 Berny optimization.
 Internal  Forces:  Max     0.156081446 RMS     0.104204691
 Search for a local minimum.
 Step number   1 out of a maximum of   20
 All quantities printed in internal units (Hartrees-Bohrs-Radians)
 Mixed Optimization -- RFO/linear search
 Second derivative matrix not updated -- first step.
 The second derivative matrix:
                          R1        R2        R3        A1        A2
           R1           0.14371
           R2           0.00000   0.14371
           R3           0.00000   0.00000   0.14371
           A1           0.00000   0.00000   0.00000   0.16000
           A2           0.00000   0.00000   0.00000   0.00000   0.16000
           A3           0.00000   0.00000   0.00000   0.00000   0.00000
           D1           0.00000   0.00000   0.00000   0.00000   0.00000
                          A3        D1
           A3           0.16000
           D1           0.00000   0.00230
 ITU=  0
     Eigenvalues ---    0.06075   0.14371   0.14371   0.14371   0.16000
     Eigenvalues ---    0.16000
 RFO step:  Lambda=-2.13977129D-01 EMin= 6.07462833D-02
 Linear search not attempted -- first point.
 Maximum step size (   0.300) exceeded in Quadratic search.
    -- Step size scaled by   0.391
 Iteration  1 RMS(Cart)=  0.12048082 RMS(Int)=  0.00193415
 Iteration  2 RMS(Cart)=  0.00162518 RMS(Int)=  0.00070055
 Iteration  3 RMS(Cart)=  0.00000537 RMS(Int)=  0.00070053
 Iteration  4 RMS(Cart)=  0.00000001 RMS(Int)=  0.00070053
 ClnCor:  largest displacement from symmetrization is 1.74D-02 for atom     4.
 Variable       Old X    -DE/DX   Delta X   Delta X   Delta X     New X
                                 (Linear)    (Quad)   (Total)
    R1        2.64562  -0.15608   0.00000  -0.17071  -0.16553   2.48008
    R2        2.64562  -0.15601   0.00000  -0.17064  -0.17070   2.47491
    R3        2.64562  -0.15608   0.00000  -0.17071  -0.16553   2.48008
    A1        1.86750  -0.00732   0.00000  -0.01639  -0.02425   1.84325
    A2        1.84611  -0.02694   0.00000  -0.03171  -0.03424   1.81187
    A3        1.86750  -0.03122   0.00000  -0.03607  -0.02425   1.84325
    D1        1.98675  -0.03454   0.00000  -0.04918  -0.05152   1.93523
         Item               Value     Threshold  Converged?
 Maximum Force            0.156081     0.000450     NO 
 RMS     Force            0.104205     0.000300     NO 
 Maximum Displacement     0.165332     0.001800     NO 
 RMS     Displacement     0.117099     0.001200     NO 
 Predicted change in Energy=-7.571967D-02
 GradGradGradGradGradGradGradGradGradGradGradGradGradGradGradGradGradGrad

                          Input orientation:                          
 ---------------------------------------------------------------------
 Center     Atomic      Atomic             Coordinates (Angstroms)
 Number     Number       Type             X           Y           Z
 ---------------------------------------------------------------------
      1          7           0        0.001905    0.001571    0.000505
      2          1           0        0.014422    0.031363    1.312510
      3          1           0        1.259328    0.029415   -0.364657
      4          1           0       -0.489213    1.171516   -0.334805
 ---------------------------------------------------------------------
                    Distance matrix (angstroms):
                    1          2          3          4
     1  N    0.000000
     2  H    1.312403   0.000000
     3  H    1.309668   2.088703   0.000000
     4  H    1.312403   2.065731   2.088703   0.000000
 Stoichiometry    H3N
 Framework group  CS[SG(HN),X(H2)]
 Deg. of freedom     4
 Full point group                 CS      NOp   2
 Largest Abelian subgroup         CS      NOp   2
 Largest concise Abelian subgroup CS      NOp   2
                         Standard orientation:                         
 ---------------------------------------------------------------------
 Center     Atomic      Atomic             Coordinates (Angstroms)
 Number     Number       Type             X           Y           Z
 ---------------------------------------------------------------------
      1          7           0        0.000000    0.157718    0.000000
      2          1           0        0.605025   -0.380367    1.032866
      3          1           0       -1.210050   -0.343291    0.000000
      4          1           0        0.605025   -0.380367   -1.032866
 ---------------------------------------------------------------------
 Rotational constants (GHZ):    178.1281916    174.1664128    115.7752146
 Standard basis: STO-3G (5D, 7F)
 There are     6 symmetry adapted basis functions of A'  symmetry.
 There are     2 symmetry adapted basis functions of A"  symmetry.
 Integral buffers will be    131072 words long.
 Raffenetti 1 integral format.
 Two-electron integral symmetry is turned on.
     8 basis functions,    24 primitive gaussians,     8 cartesian basis functions
     5 alpha electrons        5 beta electrons
       nuclear repulsion energy         9.2362291521 Hartrees.
 NAtoms=    4 NActive=    4 NUniq=    3 SFac= 1.78D+00 NAtFMM=   60 NAOKFM=F Big=F
 One-electron integrals computed using PRISM.
 NBasis=     8 RedAO= T  NBF=     6     2
 NBsUse=     8 1.00D-06 NBFU=     6     2
 Initial guess read from the read-write file.
 B after Tr=     0.000000    0.000000    0.000000
         Rot=    1.000000    0.000000    0.000000    0.000000 Ang=   0.00 deg.
 Initial guess orbital symmetries:
       Occupied  (A') (A') (A') (A") (A')
       Virtual   (A') (A") (A')
 Harris functional with IExCor=  205 diagonalized for initial guess.
 ExpMin= 1.69D-01 ExpMax= 9.91D+01 ExpMxC= 9.91D+01 IAcc=1 IRadAn=         1 AccDes= 0.00D+00
 HarFok:  IExCor=  205 AccDes= 0.00D+00 IRadAn=         1 IDoV= 1
 ScaDFX=  1.000000  1.000000  1.000000  1.000000
 FoFCou: FMM=F IPFlag=           0 FMFlag=      100000 FMFlg1=           0
         NFxFlg=           0 DoJE=T BraDBF=F KetDBF=T FulRan=T
         Omega=  0.000000  0.000000  1.000000  0.000000  0.000000 ICntrl=     500 IOpCl=  0
         NMat0=    1 NMatS0=    1 NMatT0=    0 NMatD0=    1 NMtDS0=    0 NMtDT0=    0
         I1Cent=           4 NGrid=           0.
 Petite list used in FoFCou.
 Requested convergence on RMS density matrix=1.00D-08 within 128 cycles.
 Requested convergence on MAX density matrix=1.00D-06.
 Requested convergence on             energy=1.00D-06.
 No special actions if energy rises.
 Keep R1 ints in memory in canonical form, NReq=820435.
 SCF Done:  E(RHF) =  -55.3104224559     A.U. after    9 cycles
             Convg  =    0.1925D-08             -V/T =  2.0109
 Calling FoFJK, ICntrl=      2127 FMM=F ISym2X=1 I1Cent= 0 IOpClX= 0 NMat=1 NMatS=1 NMatT=0.
 ***** Axes restored to original set *****
 -------------------------------------------------------------------
 Center     Atomic                   Forces (Hartrees/Bohr)
 Number     Number              X              Y              Z
 -------------------------------------------------------------------
      1        7           0.060984829    0.102396183    0.052226360
      2        1           0.008607526    0.008312440   -0.144614347
      3        1          -0.135646076    0.011028484    0.049104293
      4        1           0.066053722   -0.121737107    0.043283694
 -------------------------------------------------------------------
 Cartesian Forces:  Max     0.144614347 RMS     0.081638139

 GradGradGradGradGradGradGradGradGradGradGradGradGradGradGradGradGradGrad
 Berny optimization.
 Using GEDIIS/GDIIS optimizer.
 Internal  Forces:  Max     0.144299717 RMS     0.095713944
 Search for a local minimum.
 Step number   2 out of a maximum of   20
 All quantities printed in internal units (Hartrees-Bohrs-Radians)
 Mixed Optimization -- RFO/linear search
 Update second derivatives using D2CorX and points    1    2
 DE= -7.90D-02 DEPred=-7.57D-02 R= 1.04D+00
 SS=  1.41D+00  RLast= 2.98D-01 DXNew= 5.0454D-01 8.9471D-01
 Trust test= 1.04D+00 RLast= 2.98D-01 DXMaxT set to 5.05D-01
 The second derivative matrix:
                          R1        R2        R3        A1        A2
           R1           0.11867
           R2          -0.02552   0.11771
           R3          -0.02504  -0.02552   0.11867
           A1          -0.00792  -0.00817  -0.00792   0.15880
           A2           0.00195   0.00219   0.00195  -0.00201   0.16513
           A3           0.00051   0.00064   0.00051  -0.00140   0.00311
           D1           0.01457   0.01524   0.01457  -0.00040   0.00894
                          A3        D1
           A3           0.16186
           D1           0.00570   0.01301
 ITU=  1  0
 Use linear search instead of GDIIS.
 Linear search step of   0.588 exceeds DXMaxT=   0.505 but not scaled.
 Quartic linear search produced a step of  2.00000.
 Iteration  1 RMS(Cart)=  0.15269885 RMS(Int)=  0.09047406
 Iteration  2 RMS(Cart)=  0.08110154 RMS(Int)=  0.00328138
 Iteration  3 RMS(Cart)=  0.00031247 RMS(Int)=  0.00326533
 Iteration  4 RMS(Cart)=  0.00000250 RMS(Int)=  0.00326533
 Iteration  5 RMS(Cart)=  0.00000002 RMS(Int)=  0.00326533
 ClnCor:  largest displacement from symmetrization is 3.92D-03 for atom     4.
 Variable       Old X    -DE/DX   Delta X   Delta X   Delta X     New X
                                 (Linear)    (Quad)   (Total)
    R1        2.48008  -0.14430  -0.33107   0.00000  -0.33217   2.14791
    R2        2.47491  -0.14369  -0.34141   0.00000  -0.34141   2.13350
    R3        2.48008  -0.14430  -0.33107   0.00000  -0.33217   2.14791
    A1        1.84325  -0.00760  -0.04850   0.00000  -0.05299   1.79026
    A2        1.81187  -0.01979  -0.06848   0.00000  -0.06969   1.74218
    A3        1.84325  -0.02665  -0.04850   0.00000  -0.05299   1.79026
    D1        1.93523  -0.02601  -0.10305   0.00000  -0.09624   1.83898
         Item               Value     Threshold  Converged?
 Maximum Force            0.144300     0.000450     NO 
 RMS     Force            0.095714     0.000300     NO 
 Maximum Displacement     0.330226     0.001800     NO 
 RMS     Displacement     0.230942     0.001200     NO 
 Predicted change in Energy=-1.370394D-01
 GradGradGradGradGradGradGradGradGradGradGradGradGradGradGradGradGradGrad

                          Input orientation:                          
 ---------------------------------------------------------------------
 Center     Atomic      Atomic             Coordinates (Angstroms)
 Number     Number       Type             X           Y           Z
 ---------------------------------------------------------------------
      1          7           0        0.013252    0.012067    0.004301
      2          1           0        0.047736    0.089485    1.137762
      3          1           0        1.103544    0.082667   -0.280171
      4          1           0       -0.376267    1.049364   -0.249090
 ---------------------------------------------------------------------
                    Distance matrix (angstroms):
                    1          2          3          4
     1  N    0.000000
     2  H    1.136625   0.000000
     3  H    1.129001   1.767855   0.000000
     4  H    1.136625   1.739110   1.767855   0.000000
 Stoichiometry    H3N
 Framework group  CS[SG(HN),X(H2)]
 Deg. of freedom     4
 Full point group                 CS      NOp   2
 Largest Abelian subgroup         CS      NOp   2
 Largest concise Abelian subgroup CS      NOp   2
                         Standard orientation:                         
 ---------------------------------------------------------------------
 Center     Atomic      Atomic             Coordinates (Angstroms)
 Number     Number       Type             X           Y           Z
 ---------------------------------------------------------------------
      1          7           0        0.000000    0.151668    0.000000
      2          1           0        0.512798   -0.370663    0.869555
      3          1           0       -1.025595   -0.320348    0.000000
      4          1           0        0.512798   -0.370663   -0.869555
 ---------------------------------------------------------------------
 Rotational constants (GHZ):    234.1340538    226.8957523    162.1348072
 Standard basis: STO-3G (5D, 7F)
 There are     6 symmetry adapted basis functions of A'  symmetry.
 There are     2 symmetry adapted basis functions of A"  symmetry.
 Integral buffers will be    131072 words long.
 Raffenetti 1 integral format.
 Two-electron integral symmetry is turned on.
     8 basis functions,    24 primitive gaussians,     8 cartesian basis functions
     5 alpha electrons        5 beta electrons
       nuclear repulsion energy        10.7018966905 Hartrees.
 NAtoms=    4 NActive=    4 NUniq=    3 SFac= 1.78D+00 NAtFMM=   60 NAOKFM=F Big=F
 One-electron integrals computed using PRISM.
 NBasis=     8 RedAO= T  NBF=     6     2
 NBsUse=     8 1.00D-06 NBFU=     6     2
 Initial guess read from the read-write file.
 B after Tr=     0.000000    0.000000    0.000000
         Rot=    1.000000    0.000000    0.000000    0.000000 Ang=   0.00 deg.
 Initial guess orbital symmetries:
       Occupied  (A') (A') (A') (A") (A')
       Virtual   (A') (A") (A')
 Harris functional with IExCor=  205 diagonalized for initial guess.
 ExpMin= 1.69D-01 ExpMax= 9.91D+01 ExpMxC= 9.91D+01 IAcc=1 IRadAn=         1 AccDes= 0.00D+00
 HarFok:  IExCor=  205 AccDes= 0.00D+00 IRadAn=         1 IDoV= 1
 ScaDFX=  1.000000  1.000000  1.000000  1.000000
 FoFCou: FMM=F IPFlag=           0 FMFlag=      100000 FMFlg1=           0
         NFxFlg=           0 DoJE=T BraDBF=F KetDBF=T FulRan=T
         Omega=  0.000000  0.000000  1.000000  0.000000  0.000000 ICntrl=     500 IOpCl=  0
         NMat0=    1 NMatS0=    1 NMatT0=    0 NMatD0=    1 NMtDS0=    0 NMtDT0=    0
         I1Cent=           4 NGrid=           0.
 Petite list used in FoFCou.
 Requested convergence on RMS density matrix=1.00D-08 within 128 cycles.
 Requested convergence on MAX density matrix=1.00D-06.
 Requested convergence on             energy=1.00D-06.
 No special actions if energy rises.
 Keep R1 ints in memory in canonical form, NReq=820435.
 SCF Done:  E(RHF) =  -55.4313235281     A.U. after    9 cycles
             Convg  =    0.6339D-08             -V/T =  2.0101
 Calling FoFJK, ICntrl=      2127 FMM=F ISym2X=1 I1Cent= 0 IOpClX= 0 NMat=1 NMatS=1 NMatT=0.
 ***** Axes restored to original set *****
 -------------------------------------------------------------------
 Center     Atomic                   Forces (Hartrees/Bohr)
 Number     Number              X              Y              Z
 -------------------------------------------------------------------
      1        7           0.038204508    0.077670736    0.042077823
      2        1           0.002233763   -0.006366351   -0.078483199
      3        1          -0.071210788   -0.000330586    0.021542515
      4        1           0.030772517   -0.070973799    0.014862861
 -------------------------------------------------------------------
 Cartesian Forces:  Max     0.078483199 RMS     0.047616788

 GradGradGradGradGradGradGradGradGradGradGradGradGradGradGradGradGradGrad
 Berny optimization.
 Using GEDIIS/GDIIS optimizer.
 Internal  Forces:  Max     0.078630580 RMS     0.050696817
 Search for a local minimum.
 Step number   3 out of a maximum of   20
 All quantities printed in internal units (Hartrees-Bohrs-Radians)
 Mixed Optimization -- RFO/linear search
 Update second derivatives using D2CorX and points    2    3
 The second derivative matrix:
                          R1        R2        R3        A1        A2
           R1           0.15794
           R2           0.01641   0.16247
           R3           0.01424   0.01641   0.15794
           A1          -0.00465  -0.00472  -0.00465   0.15899
           A2           0.01138   0.01240   0.01138  -0.00083   0.16552
           A3           0.00916   0.00995   0.00916  -0.00048   0.00419
           D1           0.01912   0.02033   0.01912   0.00062   0.00697
                          A3        D1
           A3           0.16325
           D1           0.00509   0.00857
 ITU=  0  1  0
 Use linear search instead of GDIIS.
     Eigenvalues ---    0.07353   0.14356   0.14371   0.15094   0.16004
     Eigenvalues ---    0.21411
 RFO step:  Lambda=-9.33901536D-03 EMin= 7.35307839D-02
 Quartic linear search produced a step of  0.54707.
 Iteration  1 RMS(Cart)=  0.10720787 RMS(Int)=  0.03160568
 Iteration  2 RMS(Cart)=  0.03058604 RMS(Int)=  0.00479311
 Iteration  3 RMS(Cart)=  0.00018118 RMS(Int)=  0.00478646
 Iteration  4 RMS(Cart)=  0.00000248 RMS(Int)=  0.00478646
 Iteration  5 RMS(Cart)=  0.00000003 RMS(Int)=  0.00478646
 ClnCor:  largest displacement from symmetrization is 2.95D-02 for atom     4.
 Variable       Old X    -DE/DX   Delta X   Delta X   Delta X     New X
                                 (Linear)    (Quad)   (Total)
    R1        2.14791  -0.07863  -0.18172  -0.06536  -0.23853   1.90938
    R2        2.13350  -0.07422  -0.18678  -0.01715  -0.20417   1.92934
    R3        2.14791  -0.07863  -0.18172  -0.06536  -0.23853   1.90938
    A1        1.79026  -0.00390  -0.02899   0.11484   0.06274   1.85300
    A2        1.74218   0.00439  -0.03813   0.16973   0.12387   1.86605
    A3        1.79026  -0.00776  -0.02899   0.06828   0.06274   1.85300
    D1        1.83898  -0.00475  -0.05265   0.18464   0.13380   1.97278
         Item               Value     Threshold  Converged?
 Maximum Force            0.078631     0.000450     NO 
 RMS     Force            0.050697     0.000300     NO 
 Maximum Displacement     0.158462     0.001800     NO 
 RMS     Displacement     0.122719     0.001200     NO 
 Predicted change in Energy=-3.785406D-02
 GradGradGradGradGradGradGradGradGradGradGradGradGradGradGradGradGradGrad

                          Input orientation:                          
 ---------------------------------------------------------------------
 Center     Atomic      Atomic             Coordinates (Angstroms)
 Number     Number       Type             X           Y           Z
 ---------------------------------------------------------------------
      1          7           0        0.042470    0.086690    0.047016
      2          1           0        0.054148    0.080785    1.057334
      3          1           0        1.019690    0.091257   -0.248589
      4          1           0       -0.341685    0.976892   -0.237377
 ---------------------------------------------------------------------
                    Distance matrix (angstroms):
                    1          2          3          4
     1  N    0.000000
     2  H    1.010402   0.000000
     3  H    1.020961   1.624135   0.000000
     4  H    1.010402   1.623566   1.624135   0.000000
 Stoichiometry    H3N
 Framework group  CS[SG(HN),X(H2)]
 Deg. of freedom     4
 Full point group                 CS      NOp   2
 Largest Abelian subgroup         CS      NOp   2
 Largest concise Abelian subgroup CS      NOp   2
                         Standard orientation:                         
 ---------------------------------------------------------------------
 Center     Atomic      Atomic             Coordinates (Angstroms)
 Number     Number       Type             X           Y           Z
 ---------------------------------------------------------------------
      1          7           0        0.000000    0.115800    0.000000
      2          1           0        0.468816   -0.261205    0.811783
      3          1           0       -0.937632   -0.288191    0.000000
      4          1           0        0.468816   -0.261205   -0.811783
 ---------------------------------------------------------------------
 Rotational constants (GHZ):    297.5269013    297.2764090    190.1333403
 Standard basis: STO-3G (5D, 7F)
 There are     6 symmetry adapted basis functions of A'  symmetry.
 There are     2 symmetry adapted basis functions of A"  symmetry.
 Integral buffers will be    131072 words long.
 Raffenetti 1 integral format.
 Two-electron integral symmetry is turned on.
     8 basis functions,    24 primitive gaussians,     8 cartesian basis functions
     5 alpha electrons        5 beta electrons
       nuclear repulsion energy        11.9379742590 Hartrees.
 NAtoms=    4 NActive=    4 NUniq=    3 SFac= 1.78D+00 NAtFMM=   60 NAOKFM=F Big=F
 One-electron integrals computed using PRISM.
 NBasis=     8 RedAO= T  NBF=     6     2
 NBsUse=     8 1.00D-06 NBFU=     6     2
 Initial guess read from the read-write file.
 B after Tr=     0.000000    0.000000    0.000000
         Rot=    1.000000    0.000000    0.000000    0.000000 Ang=   0.00 deg.
 Initial guess orbital symmetries:
       Occupied  (A') (A') (A') (A") (A')
       Virtual   (A') (A") (A')
 Harris functional with IExCor=  205 diagonalized for initial guess.
 ExpMin= 1.69D-01 ExpMax= 9.91D+01 ExpMxC= 9.91D+01 IAcc=1 IRadAn=         1 AccDes= 0.00D+00
 HarFok:  IExCor=  205 AccDes= 0.00D+00 IRadAn=         1 IDoV= 1
 ScaDFX=  1.000000  1.000000  1.000000  1.000000
 FoFCou: FMM=F IPFlag=           0 FMFlag=      100000 FMFlg1=           0
         NFxFlg=           0 DoJE=T BraDBF=F KetDBF=T FulRan=T
         Omega=  0.000000  0.000000  1.000000  0.000000  0.000000 ICntrl=     500 IOpCl=  0
         NMat0=    1 NMatS0=    1 NMatT0=    0 NMatD0=    1 NMtDS0=    0 NMtDT0=    0
         I1Cent=           4 NGrid=           0.
 Petite list used in FoFCou.
 Requested convergence on RMS density matrix=1.00D-08 within 128 cycles.
 Requested convergence on MAX density matrix=1.00D-06.
 Requested convergence on             energy=1.00D-06.
 No special actions if energy rises.
 Keep R1 ints in memory in canonical form, NReq=820435.
 SCF Done:  E(RHF) =  -55.4542009874     A.U. after    9 cycles
             Convg  =    0.6895D-08             -V/T =  2.0062
 Calling FoFJK, ICntrl=      2127 FMM=F ISym2X=1 I1Cent= 0 IOpClX= 0 NMat=1 NMatS=1 NMatT=0.
 ***** Axes restored to original set *****
 -------------------------------------------------------------------
 Center     Atomic                   Forces (Hartrees/Bohr)
 Number     Number              X              Y              Z
 -------------------------------------------------------------------
      1        7          -0.002318763   -0.024180153   -0.016026851
      2        1           0.000763799    0.002850878    0.020845181
      3        1           0.008220224    0.001660126   -0.001364155
      4        1          -0.006665260    0.019669150   -0.003454175
 -------------------------------------------------------------------
 Cartesian Forces:  Max     0.024180153 RMS     0.012266385

 GradGradGradGradGradGradGradGradGradGradGradGradGradGradGradGradGradGrad
 Berny optimization.
 Using GEDIIS/GDIIS optimizer.
 Internal  Forces:  Max     0.020835600 RMS     0.011791336
 Search for a local minimum.
 Step number   4 out of a maximum of   20
 All quantities printed in internal units (Hartrees-Bohrs-Radians)
 Mixed Optimization -- RFO/linear search
 Update second derivatives using D2CorX and points    3    4
 DE= -2.29D-02 DEPred=-3.79D-02 R= 6.04D-01
 SS=  1.41D+00  RLast= 4.43D-01 DXNew= 8.4853D-01 1.3302D+00
 Trust test= 6.04D-01 RLast= 4.43D-01 DXMaxT set to 8.49D-01
 The second derivative matrix:
                          R1        R2        R3        A1        A2
           R1           0.25341
           R2           0.09113   0.22040
           R3           0.10970   0.09113   0.25341
           A1           0.02022   0.01736   0.02022   0.15309
           A2           0.01686   0.01847   0.01686  -0.00781   0.16013
           A3           0.02515   0.02377   0.02515  -0.00248   0.00093
           D1           0.00610   0.00833   0.00610   0.00583   0.01206
                          A3        D1
           A3           0.16286
           D1           0.00720   0.00437
 ITU=  1  0  1  0
 Use linear search instead of GDIIS.
     Eigenvalues ---    0.06433   0.14371   0.14386   0.15964   0.16491
     Eigenvalues ---    0.44714
 RFO step:  Lambda=-4.87465077D-04 EMin= 6.43264729D-02
 Quartic linear search produced a step of -0.15537.
 Iteration  1 RMS(Cart)=  0.02447024 RMS(Int)=  0.00063802
 Iteration  2 RMS(Cart)=  0.00054384 RMS(Int)=  0.00032836
 Iteration  3 RMS(Cart)=  0.00000027 RMS(Int)=  0.00032836
 ClnCor:  largest displacement from symmetrization is 6.48D-03 for atom     4.
 Variable       Old X    -DE/DX   Delta X   Delta X   Delta X     New X
                                 (Linear)    (Quad)   (Total)
    R1        1.90938   0.02084   0.03706   0.01923   0.05821   1.96760
    R2        1.92934   0.00827   0.03172  -0.04580  -0.01409   1.91525
    R3        1.90938   0.02084   0.03706   0.01923   0.05821   1.96760
    A1        1.85300   0.00003  -0.00975  -0.00529  -0.01758   1.83542
    A2        1.86605  -0.00481  -0.01925  -0.01072  -0.03073   1.83532
    A3        1.85300  -0.00205  -0.00975  -0.01386  -0.01758   1.83542
    D1        1.97278  -0.00304  -0.02079  -0.01706  -0.03999   1.93279
         Item               Value     Threshold  Converged?
 Maximum Force            0.020836     0.000450     NO 
 RMS     Force            0.011791     0.000300     NO 
 Maximum Displacement     0.035521     0.001800     NO 
 RMS     Displacement     0.024735     0.001200     NO 
 Predicted change in Energy=-1.522708D-03
 GradGradGradGradGradGradGradGradGradGradGradGradGradGradGradGradGradGrad

                          Input orientation:                          
 ---------------------------------------------------------------------
 Center     Atomic      Atomic             Coordinates (Angstroms)
 Number     Number       Type             X           Y           Z
 ---------------------------------------------------------------------
      1          7           0        0.042997    0.067893    0.033845
      2          1           0        0.057442    0.080189    1.074880
      3          1           0        1.016977    0.095084   -0.245111
      4          1           0       -0.345766    0.992991   -0.243953
 ---------------------------------------------------------------------
                    Distance matrix (angstroms):
                    1          2          3          4
     1  N    0.000000
     2  H    1.041208   0.000000
     3  H    1.013505   1.631964   0.000000
     4  H    1.041208   1.653815   1.631964   0.000000
 Stoichiometry    H3N
 Framework group  CS[SG(HN),X(H2)]
 Deg. of freedom     4
 Full point group                 CS      NOp   2
 Largest Abelian subgroup         CS      NOp   2
 Largest concise Abelian subgroup CS      NOp   2
                         Standard orientation:                         
 ---------------------------------------------------------------------
 Center     Atomic      Atomic             Coordinates (Angstroms)
 Number     Number       Type             X           Y           Z
 ---------------------------------------------------------------------
      1          7           0        0.000000    0.123472    0.000000
      2          1           0        0.468796   -0.301460    0.826908
      3          1           0       -0.937591   -0.261386    0.000000
      4          1           0        0.468796   -0.301460   -0.826908
 ---------------------------------------------------------------------
 Rotational constants (GHZ):    288.5860066    280.9275453    186.5716590
 Standard basis: STO-3G (5D, 7F)
 There are     6 symmetry adapted basis functions of A'  symmetry.
 There are     2 symmetry adapted basis functions of A"  symmetry.
 Integral buffers will be    131072 words long.
 Raffenetti 1 integral format.
 Two-electron integral symmetry is turned on.
     8 basis functions,    24 primitive gaussians,     8 cartesian basis functions
     5 alpha electrons        5 beta electrons
       nuclear repulsion energy        11.7386460753 Hartrees.
 NAtoms=    4 NActive=    4 NUniq=    3 SFac= 1.78D+00 NAtFMM=   60 NAOKFM=F Big=F
 One-electron integrals computed using PRISM.
 NBasis=     8 RedAO= T  NBF=     6     2
 NBsUse=     8 1.00D-06 NBFU=     6     2
 Initial guess read from the read-write file.
 B after Tr=     0.000000    0.000000    0.000000
         Rot=    1.000000    0.000000    0.000000    0.000000 Ang=   0.00 deg.
 Initial guess orbital symmetries:
       Occupied  (A') (A') (A") (A') (A')
       Virtual   (A') (A') (A")
 Harris functional with IExCor=  205 diagonalized for initial guess.
 ExpMin= 1.69D-01 ExpMax= 9.91D+01 ExpMxC= 9.91D+01 IAcc=1 IRadAn=         1 AccDes= 0.00D+00
 HarFok:  IExCor=  205 AccDes= 0.00D+00 IRadAn=         1 IDoV= 1
 ScaDFX=  1.000000  1.000000  1.000000  1.000000
 FoFCou: FMM=F IPFlag=           0 FMFlag=      100000 FMFlg1=           0
         NFxFlg=           0 DoJE=T BraDBF=F KetDBF=T FulRan=T
         Omega=  0.000000  0.000000  1.000000  0.000000  0.000000 ICntrl=     500 IOpCl=  0
         NMat0=    1 NMatS0=    1 NMatT0=    0 NMatD0=    1 NMtDS0=    0 NMtDT0=    0
         I1Cent=           4 NGrid=           0.
 Petite list used in FoFCou.
 Requested convergence on RMS density matrix=1.00D-08 within 128 cycles.
 Requested convergence on MAX density matrix=1.00D-06.
 Requested convergence on             energy=1.00D-06.
 No special actions if energy rises.
 Keep R1 ints in memory in canonical form, NReq=820435.
 SCF Done:  E(RHF) =  -55.4547851173     A.U. after    8 cycles
             Convg  =    0.8304D-08             -V/T =  2.0069
 Calling FoFJK, ICntrl=      2127 FMM=F ISym2X=1 I1Cent= 0 IOpClX= 0 NMat=1 NMatS=1 NMatT=0.
 ***** Axes restored to original set *****
 -------------------------------------------------------------------
 Center     Atomic                   Forces (Hartrees/Bohr)
 Number     Number              X              Y              Z
 -------------------------------------------------------------------
      1        7          -0.026061160    0.005147518    0.011530439
      2        1           0.000571982    0.001748968   -0.011062438
      3        1           0.020212938    0.002004278   -0.004792498
      4        1           0.005276240   -0.008900764    0.004324496
 -------------------------------------------------------------------
 Cartesian Forces:  Max     0.026061160 RMS     0.011275738

 GradGradGradGradGradGradGradGradGradGradGradGradGradGradGradGradGradGrad
 Berny optimization.
 Using GEDIIS/GDIIS optimizer.
 Internal  Forces:  Max     0.020797517 RMS     0.009960489
 Search for a local minimum.
 Step number   5 out of a maximum of   20
 All quantities printed in internal units (Hartrees-Bohrs-Radians)
 Mixed Optimization -- RFO/linear search
 Update second derivatives using D2CorX and points    3    4    5
 DE= -5.84D-04 DEPred=-1.52D-03 R= 3.84D-01
 Trust test= 3.84D-01 RLast= 1.01D-01 DXMaxT set to 8.49D-01
 The second derivative matrix:
                          R1        R2        R3        A1        A2
           R1           0.35699
           R2          -0.05001   0.31176
           R3           0.21328  -0.05001   0.35699
           A1           0.02737   0.01917   0.02737   0.15255
           A2           0.03096   0.03088   0.03096  -0.00985   0.15338
           A3           0.02933   0.02853   0.02933  -0.00306  -0.00111
           D1           0.00215   0.01310   0.00215   0.00568   0.01183
                          A3        D1
           A3           0.16230
           D1           0.00716   0.00453
 ITU=  0  1  0  1  0
 Use linear search instead of GDIIS.
     Eigenvalues ---    0.06157   0.14371   0.15164   0.15963   0.31027
     Eigenvalues ---    0.59227
 RFO step:  Lambda=-1.45210104D-03 EMin= 6.15724396D-02
 Quartic linear search produced a step of -0.35716.
 Iteration  1 RMS(Cart)=  0.02646517 RMS(Int)=  0.00067959
 Iteration  2 RMS(Cart)=  0.00050644 RMS(Int)=  0.00034991
 Iteration  3 RMS(Cart)=  0.00000012 RMS(Int)=  0.00034991
 ClnCor:  largest displacement from symmetrization is 1.03D-03 for atom     4.
 Variable       Old X    -DE/DX   Delta X   Delta X   Delta X     New X
                                 (Linear)    (Quad)   (Total)
    R1        1.96760  -0.01103  -0.02079   0.01131  -0.00918   1.95842
    R2        1.91525   0.02080   0.00503   0.06728   0.07231   1.98755
    R3        1.96760  -0.01103  -0.02079   0.01131  -0.00918   1.95842
    A1        1.83542  -0.00034   0.00628  -0.02859  -0.02344   1.81197
    A2        1.83532  -0.00299   0.01098  -0.04270  -0.03206   1.80326
    A3        1.83542  -0.00201   0.00628  -0.03044  -0.02344   1.81197
    D1        1.93279  -0.00233   0.01428  -0.06037  -0.04575   1.88704
         Item               Value     Threshold  Converged?
 Maximum Force            0.020798     0.000450     NO 
 RMS     Force            0.009960     0.000300     NO 
 Maximum Displacement     0.037174     0.001800     NO 
 RMS     Displacement     0.026400     0.001200     NO 
 Predicted change in Energy=-9.946178D-04
 GradGradGradGradGradGradGradGradGradGradGradGradGradGradGradGradGradGrad

                          Input orientation:                          
 ---------------------------------------------------------------------
 Center     Atomic      Atomic             Coordinates (Angstroms)
 Number     Number       Type             X           Y           Z
 ---------------------------------------------------------------------
      1          7           0        0.024076    0.056588    0.031805
      2          1           0        0.053405    0.092650    1.067114
      3          1           0        1.036649    0.097066   -0.249753
      4          1           0       -0.342950    0.989937   -0.229302
 ---------------------------------------------------------------------
                    Distance matrix (angstroms):
                    1          2          3          4
     1  N    0.000000
     2  H    1.036352   0.000000
     3  H    1.051769   1.643450   0.000000
     4  H    1.036352   1.625705   1.643450   0.000000
 Stoichiometry    H3N
 Framework group  CS[SG(HN),X(H2)]
 Deg. of freedom     4
 Full point group                 CS      NOp   2
 Largest Abelian subgroup         CS      NOp   2
 Largest concise Abelian subgroup CS      NOp   2
                         Standard orientation:                         
 ---------------------------------------------------------------------
 Center     Atomic      Atomic             Coordinates (Angstroms)
 Number     Number       Type             X           Y           Z
 ---------------------------------------------------------------------
      1          7           0        0.000000    0.131074    0.000000
      2          1           0        0.476093   -0.300935    0.812852
      3          1           0       -0.952187   -0.315646    0.000000
      4          1           0        0.476093   -0.300935   -0.812852
 ---------------------------------------------------------------------
 Rotational constants (GHZ):    279.7725957    273.8518525    186.9937441
 Standard basis: STO-3G (5D, 7F)
 There are     6 symmetry adapted basis functions of A'  symmetry.
 There are     2 symmetry adapted basis functions of A"  symmetry.
 Integral buffers will be    131072 words long.
 Raffenetti 1 integral format.
 Two-electron integral symmetry is turned on.
     8 basis functions,    24 primitive gaussians,     8 cartesian basis functions
     5 alpha electrons        5 beta electrons
       nuclear repulsion energy        11.6400181919 Hartrees.
 NAtoms=    4 NActive=    4 NUniq=    3 SFac= 1.78D+00 NAtFMM=   60 NAOKFM=F Big=F
 One-electron integrals computed using PRISM.
 NBasis=     8 RedAO= T  NBF=     6     2
 NBsUse=     8 1.00D-06 NBFU=     6     2
 Initial guess read from the read-write file.
 B after Tr=     0.000000    0.000000    0.000000
         Rot=    1.000000    0.000000    0.000000    0.000000 Ang=   0.00 deg.
 Initial guess orbital symmetries:
       Occupied  (A') (A') (A') (A") (A')
       Virtual   (A') (A") (A')
 Harris functional with IExCor=  205 diagonalized for initial guess.
 ExpMin= 1.69D-01 ExpMax= 9.91D+01 ExpMxC= 9.91D+01 IAcc=1 IRadAn=         1 AccDes= 0.00D+00
 HarFok:  IExCor=  205 AccDes= 0.00D+00 IRadAn=         1 IDoV= 1
 ScaDFX=  1.000000  1.000000  1.000000  1.000000
 FoFCou: FMM=F IPFlag=           0 FMFlag=      100000 FMFlg1=           0
         NFxFlg=           0 DoJE=T BraDBF=F KetDBF=T FulRan=T
         Omega=  0.000000  0.000000  1.000000  0.000000  0.000000 ICntrl=     500 IOpCl=  0
         NMat0=    1 NMatS0=    1 NMatT0=    0 NMatD0=    1 NMtDS0=    0 NMtDT0=    0
         I1Cent=           4 NGrid=           0.
 Petite list used in FoFCou.
 Requested convergence on RMS density matrix=1.00D-08 within 128 cycles.
 Requested convergence on MAX density matrix=1.00D-06.
 Requested convergence on             energy=1.00D-06.
 No special actions if energy rises.
 Keep R1 ints in memory in canonical form, NReq=820435.
 SCF Done:  E(RHF) =  -55.4550351824     A.U. after    8 cycles
             Convg  =    0.2772D-08             -V/T =  2.0073
 Calling FoFJK, ICntrl=      2127 FMM=F ISym2X=1 I1Cent= 0 IOpClX= 0 NMat=1 NMatS=1 NMatT=0.
 ***** Axes restored to original set *****
 -------------------------------------------------------------------
 Center     Atomic                   Forces (Hartrees/Bohr)
 Number     Number              X              Y              Z
 -------------------------------------------------------------------
      1        7           0.016427027    0.004155487   -0.002146116
      2        1           0.000635936   -0.001148378   -0.002597046
      3        1          -0.018324080   -0.000443416    0.005295333
      4        1           0.001261117   -0.002563693   -0.000552171
 -------------------------------------------------------------------
 Cartesian Forces:  Max     0.018324080 RMS     0.007487021

 GradGradGradGradGradGradGradGradGradGradGradGradGradGradGradGradGradGrad
 Berny optimization.
 Using GEDIIS/GDIIS optimizer.
 Internal  Forces:  Max     0.019075829 RMS     0.007400017
 Search for a local minimum.
 Step number   6 out of a maximum of   20
 All quantities printed in internal units (Hartrees-Bohrs-Radians)
 Mixed Optimization -- RFO/linear search
 Update second derivatives using D2CorX and points    3    4    5    6
 DE= -2.50D-04 DEPred=-9.95D-04 R= 2.51D-01
 Trust test= 2.51D-01 RLast= 9.81D-02 DXMaxT set to 8.49D-01
 The second derivative matrix:
                          R1        R2        R3        A1        A2
           R1           0.32209
           R2          -0.02551   0.56472
           R3           0.17838  -0.02551   0.32209
           A1           0.03006   0.04869   0.03006   0.14619
           A2           0.02352   0.00201   0.02352  -0.02166   0.14996
           A3           0.02813   0.03784   0.02813  -0.00948  -0.00784
           D1          -0.00305  -0.01453  -0.00305   0.00526   0.01848
                          A3        D1
           A3           0.15766
           D1           0.00933   0.00817
 ITU=  0  0  1  0  1  0
 Use linear search instead of GDIIS.
     Eigenvalues ---    0.06719   0.14371   0.15853   0.16067   0.49206
     Eigenvalues ---    0.58223
 RFO step:  Lambda=-1.71821088D-04 EMin= 6.71920646D-02
 Quartic linear search produced a step of -0.43130.
 Iteration  1 RMS(Cart)=  0.01290668 RMS(Int)=  0.00017623
 Iteration  2 RMS(Cart)=  0.00011944 RMS(Int)=  0.00011809
 Iteration  3 RMS(Cart)=  0.00000001 RMS(Int)=  0.00011809
 ClnCor:  largest displacement from symmetrization is 9.79D-04 for atom     4.
 Variable       Old X    -DE/DX   Delta X   Delta X   Delta X     New X
                                 (Linear)    (Quad)   (Total)
    R1        1.95842  -0.00262   0.00396  -0.01254  -0.00830   1.95012
    R2        1.98755  -0.01908  -0.03119  -0.00507  -0.03626   1.95130
    R3        1.95842  -0.00262   0.00396  -0.01254  -0.00830   1.95012
    A1        1.81197  -0.00055   0.01011  -0.00141   0.00847   1.82044
    A2        1.80326   0.00226   0.01383   0.00324   0.01700   1.82027
    A3        1.81197  -0.00058   0.01011  -0.00258   0.00847   1.82044
    D1        1.88704  -0.00003   0.01973  -0.00129   0.01801   1.90505
         Item               Value     Threshold  Converged?
 Maximum Force            0.019076     0.000450     NO 
 RMS     Force            0.007400     0.000300     NO 
 Maximum Displacement     0.022653     0.001800     NO 
 RMS     Displacement     0.012877     0.001200     NO 
 Predicted change in Energy=-3.683717D-04
 GradGradGradGradGradGradGradGradGradGradGradGradGradGradGradGradGradGrad

                          Input orientation:                          
 ---------------------------------------------------------------------
 Center     Atomic      Atomic             Coordinates (Angstroms)
 Number     Number       Type             X           Y           Z
 ---------------------------------------------------------------------
      1          7           0        0.031325    0.063230    0.034186
      2          1           0        0.056026    0.087988    1.065552
      3          1           0        1.024661    0.097650   -0.245684
      4          1           0       -0.341287    0.987445   -0.234001
 ---------------------------------------------------------------------
                    Distance matrix (angstroms):
                    1          2          3          4
     1  N    0.000000
     2  H    1.031958   0.000000
     3  H    1.032583   1.630241   0.000000
     4  H    1.031958   1.629638   1.630241   0.000000
 Stoichiometry    H3N
 Framework group  CS[SG(HN),X(H2)]
 Deg. of freedom     4
 Full point group                 CS      NOp   2
 Largest Abelian subgroup         CS      NOp   2
 Largest concise Abelian subgroup CS      NOp   2
                         Standard orientation:                         
 ---------------------------------------------------------------------
 Center     Atomic      Atomic             Coordinates (Angstroms)
 Number     Number       Type             X           Y           Z
 ---------------------------------------------------------------------
      1          7           0        0.000000    0.127170    0.000000
      2          1           0        0.470668   -0.296480    0.814819
      3          1           0       -0.941336   -0.297229    0.000000
      4          1           0        0.470668   -0.296480   -0.814819
 ---------------------------------------------------------------------
 Rotational constants (GHZ):    283.1148134    282.9053352    188.7275481
 Standard basis: STO-3G (5D, 7F)
 There are     6 symmetry adapted basis functions of A'  symmetry.
 There are     2 symmetry adapted basis functions of A"  symmetry.
 Integral buffers will be    131072 words long.
 Raffenetti 1 integral format.
 Two-electron integral symmetry is turned on.
     8 basis functions,    24 primitive gaussians,     8 cartesian basis functions
     5 alpha electrons        5 beta electrons
       nuclear repulsion energy        11.7403241482 Hartrees.
 NAtoms=    4 NActive=    4 NUniq=    3 SFac= 1.78D+00 NAtFMM=   60 NAOKFM=F Big=F
 One-electron integrals computed using PRISM.
 NBasis=     8 RedAO= T  NBF=     6     2
 NBsUse=     8 1.00D-06 NBFU=     6     2
 Initial guess read from the read-write file.
 B after Tr=     0.000000    0.000000    0.000000
         Rot=    1.000000    0.000000    0.000000    0.000000 Ang=   0.00 deg.
 Initial guess orbital symmetries:
       Occupied  (A') (A') (A") (A') (A')
       Virtual   (A') (A') (A")
 Harris functional with IExCor=  205 diagonalized for initial guess.
 ExpMin= 1.69D-01 ExpMax= 9.91D+01 ExpMxC= 9.91D+01 IAcc=1 IRadAn=         1 AccDes= 0.00D+00
 HarFok:  IExCor=  205 AccDes= 0.00D+00 IRadAn=         1 IDoV= 1
 ScaDFX=  1.000000  1.000000  1.000000  1.000000
 FoFCou: FMM=F IPFlag=           0 FMFlag=      100000 FMFlg1=           0
         NFxFlg=           0 DoJE=T BraDBF=F KetDBF=T FulRan=T
         Omega=  0.000000  0.000000  1.000000  0.000000  0.000000 ICntrl=     500 IOpCl=  0
         NMat0=    1 NMatS0=    1 NMatT0=    0 NMatD0=    1 NMtDS0=    0 NMtDT0=    0
         I1Cent=           4 NGrid=           0.
 Petite list used in FoFCou.
 Requested convergence on RMS density matrix=1.00D-08 within 128 cycles.
 Requested convergence on MAX density matrix=1.00D-06.
 Requested convergence on             energy=1.00D-06.
 No special actions if energy rises.
 Keep R1 ints in memory in canonical form, NReq=820435.
 SCF Done:  E(RHF) =  -55.4554179066     A.U. after    7 cycles
             Convg  =    0.4232D-08             -V/T =  2.0069
 Calling FoFJK, ICntrl=      2127 FMM=F ISym2X=1 I1Cent= 0 IOpClX= 0 NMat=1 NMatS=1 NMatT=0.
 ***** Axes restored to original set *****
 -------------------------------------------------------------------
 Center     Atomic                   Forces (Hartrees/Bohr)
 Number     Number              X              Y              Z
 -------------------------------------------------------------------
      1        7           0.000059078   -0.000853907   -0.000609075
      2        1           0.000161014    0.000189953    0.000391757
      3        1          -0.000260754    0.000201543    0.000219214
      4        1           0.000040662    0.000462411   -0.000001896
 -------------------------------------------------------------------
 Cartesian Forces:  Max     0.000853907 RMS     0.000375416

 GradGradGradGradGradGradGradGradGradGradGradGradGradGradGradGradGradGrad
 Berny optimization.
 Using GEDIIS/GDIIS optimizer.
 Internal  Forces:  Max     0.000399943 RMS     0.000311184
 Search for a local minimum.
 Step number   7 out of a maximum of   20
 All quantities printed in internal units (Hartrees-Bohrs-Radians)
 Mixed Optimization -- En-DIIS/RFO-DIIS
 Update second derivatives using D2CorX and points    3    4    5    6    7
 DE= -3.83D-04 DEPred=-3.68D-04 R= 1.04D+00
 SS=  1.41D+00  RLast= 4.70D-02 DXNew= 1.4270D+00 1.4101D-01
 Trust test= 1.04D+00 RLast= 4.70D-02 DXMaxT set to 8.49D-01
 The second derivative matrix:
                          R1        R2        R3        A1        A2
           R1           0.34826
           R2          -0.02177   0.53885
           R3           0.20455  -0.02177   0.34826
           A1           0.01410   0.02253   0.01410   0.13223
           A2           0.01783  -0.01015   0.01783  -0.03016   0.14402
           A3           0.02173   0.02788   0.02173  -0.02073  -0.01474
           D1           0.00988   0.00824   0.00988   0.00882   0.02041
                          A3        D1
           A3           0.15040
           D1           0.01467   0.01063
 ITU=  1  0  0  1  0  1  0
 Use linear search instead of GDIIS.
     Eigenvalues ---    0.06361   0.14371   0.15793   0.16005   0.52001
     Eigenvalues ---    0.57911
 RFO step:  Lambda=-4.14240148D-06 EMin= 6.36105911D-02
 Quartic linear search produced a step of -0.01103.
 Iteration  1 RMS(Cart)=  0.00173862 RMS(Int)=  0.00000582
 Iteration  2 RMS(Cart)=  0.00000418 RMS(Int)=  0.00000383
 Iteration  3 RMS(Cart)=  0.00000000 RMS(Int)=  0.00000383
 ClnCor:  largest displacement from symmetrization is 3.90D-05 for atom     4.
 Variable       Old X    -DE/DX   Delta X   Delta X   Delta X     New X
                                 (Linear)    (Quad)   (Total)
    R1        1.95012   0.00040   0.00009   0.00098   0.00108   1.95120
    R2        1.95130  -0.00030   0.00040  -0.00059  -0.00019   1.95111
    R3        1.95012   0.00040   0.00009   0.00098   0.00108   1.95120
    A1        1.82044  -0.00009  -0.00009  -0.00273  -0.00285   1.81759
    A2        1.82027  -0.00025  -0.00019  -0.00235  -0.00255   1.81772
    A3        1.82044  -0.00032  -0.00009  -0.00279  -0.00285   1.81759
    D1        1.90505  -0.00031  -0.00020  -0.00483  -0.00503   1.90002
         Item               Value     Threshold  Converged?
 Maximum Force            0.000400     0.000450     YES
 RMS     Force            0.000311     0.000300     NO 
 Maximum Displacement     0.002685     0.001800     NO 
 RMS     Displacement     0.001736     0.001200     NO 
 Predicted change in Energy=-2.147337D-06
 GradGradGradGradGradGradGradGradGradGradGradGradGradGradGradGradGradGrad

                          Input orientation:                          
 ---------------------------------------------------------------------
 Center     Atomic      Atomic             Coordinates (Angstroms)
 Number     Number       Type             X           Y           Z
 ---------------------------------------------------------------------
      1          7           0        0.030540    0.061809    0.033443
      2          1           0        0.056606    0.088524    1.065299
      3          1           0        1.024095    0.098394   -0.244996
      4          1           0       -0.340533    0.987589   -0.233686
 ---------------------------------------------------------------------
                    Distance matrix (angstroms):
                    1          2          3          4
     1  N    0.000000
     2  H    1.032531   0.000000
     3  H    1.032482   1.628805   0.000000
     4  H    1.032531   1.628926   1.628805   0.000000
 Stoichiometry    H3N
 Framework group  CS[SG(HN),X(H2)]
 Deg. of freedom     4
 Full point group                 CS      NOp   2
 Largest Abelian subgroup         CS      NOp   2
 Largest concise Abelian subgroup CS      NOp   2
                         Standard orientation:                         
 ---------------------------------------------------------------------
 Center     Atomic      Atomic             Coordinates (Angstroms)
 Number     Number       Type             X           Y           Z
 ---------------------------------------------------------------------
      1          7           0        0.000000    0.127881    0.000000
      2          1           0        0.470184   -0.298378    0.814463
      3          1           0       -0.940368   -0.298413    0.000000
      4          1           0        0.470184   -0.298378   -0.814463
 ---------------------------------------------------------------------
 Rotational constants (GHZ):    282.5480946    282.5063690    189.0045576
 Standard basis: STO-3G (5D, 7F)
 There are     6 symmetry adapted basis functions of A'  symmetry.
 There are     2 symmetry adapted basis functions of A"  symmetry.
 Integral buffers will be    131072 words long.
 Raffenetti 1 integral format.
 Two-electron integral symmetry is turned on.
     8 basis functions,    24 primitive gaussians,     8 cartesian basis functions
     5 alpha electrons        5 beta electrons
       nuclear repulsion energy        11.7374095231 Hartrees.
 NAtoms=    4 NActive=    4 NUniq=    3 SFac= 1.78D+00 NAtFMM=   60 NAOKFM=F Big=F
 One-electron integrals computed using PRISM.
 NBasis=     8 RedAO= T  NBF=     6     2
 NBsUse=     8 1.00D-06 NBFU=     6     2
 Initial guess read from the read-write file.
 B after Tr=     0.000000    0.000000    0.000000
         Rot=    1.000000    0.000000    0.000000    0.000000 Ang=   0.00 deg.
 Initial guess orbital symmetries:
       Occupied  (A') (A') (A") (A') (A')
       Virtual   (A') (A') (A")
 Requested convergence on RMS density matrix=1.00D-08 within 128 cycles.
 Requested convergence on MAX density matrix=1.00D-06.
 Requested convergence on             energy=1.00D-06.
 No special actions if energy rises.
 Keep R1 ints in memory in canonical form, NReq=820435.
 SCF Done:  E(RHF) =  -55.4554197503     A.U. after    6 cycles
             Convg  =    0.8147D-08             -V/T =  2.0069
 Calling FoFJK, ICntrl=      2127 FMM=F ISym2X=1 I1Cent= 0 IOpClX= 0 NMat=1 NMatS=1 NMatT=0.
 ***** Axes restored to original set *****
 -------------------------------------------------------------------
 Center     Atomic                   Forces (Hartrees/Bohr)
 Number     Number              X              Y              Z
 -------------------------------------------------------------------
      1        7           0.000010406    0.000065642    0.000042251
      2        1          -0.000034018   -0.000025926    0.000022307
      3        1           0.000069236   -0.000040067   -0.000048899
      4        1          -0.000045625    0.000000351   -0.000015659
 -------------------------------------------------------------------
 Cartesian Forces:  Max     0.000069236 RMS     0.000040462

 GradGradGradGradGradGradGradGradGradGradGradGradGradGradGradGradGradGrad
 Berny optimization.
 Using GEDIIS/GDIIS optimizer.
 Internal  Forces:  Max     0.000078393 RMS     0.000048101
 Search for a local minimum.
 Step number   8 out of a maximum of   20
 All quantities printed in internal units (Hartrees-Bohrs-Radians)
 Mixed Optimization -- En-DIIS/RFO-DIIS
 Swaping is turned off.
 Update second derivatives using D2CorX and points    3    4    5    6    7
                                                      8
 DE= -1.84D-06 DEPred=-2.15D-06 R= 8.59D-01
 SS=  1.41D+00  RLast= 7.10D-03 DXNew= 1.4270D+00 2.1308D-02
 Trust test= 8.59D-01 RLast= 7.10D-03 DXMaxT set to 8.49D-01
 The second derivative matrix:
                          R1        R2        R3        A1        A2
           R1           0.33763
           R2          -0.02012   0.54684
           R3           0.19392  -0.02012   0.33763
           A1           0.02203   0.00840   0.02203   0.11694
           A2           0.02005  -0.01152   0.02005  -0.04365   0.13757
           A3           0.02425   0.03059   0.02425  -0.03588  -0.01981
           D1           0.00333   0.03018   0.00333   0.00840   0.03113
                          A3        D1
           A3           0.14843
           D1           0.03177   0.03414
 ITU=  1  1  0  0  1  0  1  0
     Eigenvalues ---    0.07176   0.14371   0.15959   0.16325   0.51804
     Eigenvalues ---    0.57004
 En-DIIS/RFO-DIIS IScMMF=        0 using points:     8    7
 RFO step:  Lambda=-3.55244521D-08.
 DidBck=F Rises=F RFO-DIIS coefs:    0.87790    0.12210
 Iteration  1 RMS(Cart)=  0.00027036 RMS(Int)=  0.00000050
 Iteration  2 RMS(Cart)=  0.00000007 RMS(Int)=  0.00000049
 ClnCor:  largest displacement from symmetrization is 6.85D-07 for atom     4.
 Variable       Old X    -DE/DX   Delta X   Delta X   Delta X     New X
                                  (DIIS)     (GDIIS)  (Total)
    R1        1.95120   0.00002  -0.00013   0.00012  -0.00001   1.95119
    R2        1.95111   0.00008   0.00002   0.00005   0.00008   1.95119
    R3        1.95120   0.00002  -0.00013   0.00012  -0.00001   1.95119
    A1        1.81759   0.00002   0.00035   0.00008   0.00043   1.81802
    A2        1.81772   0.00003   0.00031  -0.00003   0.00028   1.81800
    A3        1.81759   0.00007   0.00035   0.00008   0.00043   1.81802
    D1        1.90002   0.00006   0.00061   0.00011   0.00072   1.90074
         Item               Value     Threshold  Converged?
 Maximum Force            0.000078     0.000450     YES
 RMS     Force            0.000048     0.000300     YES
 Maximum Displacement     0.000327     0.001800     YES
 RMS     Displacement     0.000270     0.001200     YES
 Predicted change in Energy=-4.719970D-08
 Optimization completed.
    -- Stationary point found.
                           ----------------------------
                           !   Optimized Parameters   !
                           ! (Angstroms and Degrees)  !
 --------------------------                            --------------------------
 ! Name  Definition              Value          Derivative Info.                !
 --------------------------------------------------------------------------------
 ! R1    R(1,2)                  1.0325         -DE/DX =    0.0                 !
 ! R2    R(1,3)                  1.0325         -DE/DX =    0.0001              !
 ! R3    R(1,4)                  1.0325         -DE/DX =    0.0                 !
 ! A1    A(2,1,3)              104.1401         -DE/DX =    0.0                 !
 ! A2    A(2,1,4)              104.1475         -DE/DX =    0.0                 !
 ! A3    A(3,1,4)              104.1401         -DE/DX =    0.0001              !
 ! D1    D(2,1,4,3)            108.8631         -DE/DX =    0.0001              !
 --------------------------------------------------------------------------------
 GradGradGradGradGradGradGradGradGradGradGradGradGradGradGradGradGradGrad

                          Input orientation:                          
 ---------------------------------------------------------------------
 Center     Atomic      Atomic             Coordinates (Angstroms)
 Number     Number       Type             X           Y           Z
 ---------------------------------------------------------------------
      1          7           0        0.030540    0.061809    0.033443
      2          1           0        0.056606    0.088524    1.065299
      3          1           0        1.024095    0.098394   -0.244996
      4          1           0       -0.340533    0.987589   -0.233686
 ---------------------------------------------------------------------
                    Distance matrix (angstroms):
                    1          2          3          4
     1  N    0.000000
     2  H    1.032531   0.000000
     3  H    1.032482   1.628805   0.000000
     4  H    1.032531   1.628926   1.628805   0.000000
 Stoichiometry    H3N
 Framework group  CS[SG(HN),X(H2)]
 Deg. of freedom     4
 Full point group                 CS      NOp   2
 Largest Abelian subgroup         CS      NOp   2
 Largest concise Abelian subgroup CS      NOp   2
                         Standard orientation:                         
 ---------------------------------------------------------------------
 Center     Atomic      Atomic             Coordinates (Angstroms)
 Number     Number       Type             X           Y           Z
 ---------------------------------------------------------------------
      1          7           0        0.000000    0.127881    0.000000
      2          1           0        0.470184   -0.298378    0.814463
      3          1           0       -0.940368   -0.298413    0.000000
      4          1           0        0.470184   -0.298378   -0.814463
 ---------------------------------------------------------------------
 Rotational constants (GHZ):    282.5480946    282.5063690    189.0045576

 **********************************************************************

            Population analysis using the SCF density.

 **********************************************************************

 Orbital symmetries:
       Occupied  (A') (A') (A") (A') (A')
       Virtual   (A') (A") (A')
 The electronic state is 1-A'.
 Alpha  occ. eigenvalues --  -15.31284  -1.08676  -0.56152  -0.56151  -0.35858
 Alpha virt. eigenvalues --    0.62508   0.70013   0.70014
          Condensed to atoms (all electrons):
              1          2          3          4
     1  N    6.447154   0.331153   0.331156   0.331153
     2  H    0.331153   0.590996  -0.034514  -0.034505
     3  H    0.331156  -0.034514   0.590995  -0.034514
     4  H    0.331153  -0.034505  -0.034514   0.590996
 Mulliken atomic charges:
              1
     1  N   -0.440616
     2  H    0.146870
     3  H    0.146877
     4  H    0.146870
 Sum of Mulliken atomic charges =   0.00000
 Mulliken charges with hydrogens summed into heavy atoms:
              1
     1  N    0.000000
 Sum of Mulliken charges with hydrogens summed into heavy atoms =   0.00000
 Electronic spatial extent (au):  <R**2>=             25.4272
 Charge=              0.0000 electrons
 Dipole moment (field-independent basis, Debye):
    X=              0.0000    Y=             -1.8766    Z=              0.0000  Tot=              1.8766
 Quadrupole moment (field-independent basis, Debye-Ang):
   XX=             -5.9917   YY=             -7.6411   ZZ=             -5.9913
   XY=              0.0001   XZ=              0.0000   YZ=              0.0000
 Traceless Quadrupole moment (field-independent basis, Debye-Ang):
   XX=              0.5497   YY=             -1.0997   ZZ=              0.5500
   XY=              0.0001   XZ=              0.0000   YZ=              0.0000
 Octapole moment (field-independent basis, Debye-Ang**2):
  XXX=             -0.5693  YYY=             -0.8200  ZZZ=              0.0000  XYY=              0.0000
  XXY=             -0.5686  XXZ=              0.0000  XZZ=              0.5694  YZZ=             -0.5687
  YYZ=              0.0000  XYZ=              0.0000
 Hexadecapole moment (field-independent basis, Debye-Ang**3):
 XXXX=             -9.1163 YYYY=             -6.8315 ZZZZ=             -9.1168 XXXY=              0.2569
 XXXZ=              0.0000 YYYX=              0.0000 YYYZ=              0.0000 ZZZX=              0.0000
 ZZZY=              0.0000 XXYY=             -2.6481 XXZZ=             -3.0388 YYZZ=             -2.6483
 XXYZ=              0.0000 YYXZ=              0.0000 ZZXY=             -0.2570
 N-N= 1.173740952308D+01 E-N=-1.536985108793D+02  KE= 5.507525804413D+01
 Symmetry A'   KE= 5.272753782386D+01
 Symmetry A"   KE= 2.347720220277D+00
 1\1\GINC-NODE47\FOpt\RHF\STO-3G\H3N1\cn410101\04-Sep-2018\0\\#HF STO-3
 G opt freq\\Ammonia optimization\\0,1\N,0.0305400472,0.0618094485,0.03
 34430375\H,0.056606242,0.0885240309,1.0652992487\H,1.0240953258,0.0983
 939323,-0.2449961392\H,-0.3405334283,0.9875885071,-0.2336860818\\Versi
 on=EM64L-G09RevC.01\State=1-A'\HF=-55.4554198\RMSD=8.147e-09\RMSF=4.04
 6e-05\Dipole=0.3744218,0.5710218,0.2807481\Quadrupole=0.0933277,-0.324
 8331,0.2315054,-0.4810245,-0.2364386,-0.3608006\PG=CS [SG(H1N1),X(H2)]
 \\@


 IF OTHER PEOPLE ARE GOING TO TALK, CONVERSATION IS SIMPLY IMPOSSIBLE.

                                               -- WHISTLER'S PRINCIPLE
 Job cpu time:  0 days  0 hours  0 minutes 12.9 seconds.
 File lengths (MBytes):  RWF=      5 Int=      0 D2E=      0 Chk=      1 Scr=      1
 Normal termination of Gaussian 09 at Tue Sep  4 18:27:17 2018.
 Link1:  Proceeding to internal job step number  2.
 ---------------------------------------------------------------
 #N Geom=AllCheck Guess=TCheck SCRF=Check GenChk RHF/STO-3G Freq
 ---------------------------------------------------------------
 1/10=4,29=7,30=1,38=1,40=1/1,3;
 2/12=2,40=1/2;
 3/6=3,11=1,14=-4,16=1,25=1,30=1,70=2,71=2,116=1/1,2,3;
 4/5=101/1;
 5/5=2,98=1/2;
 8/6=4,10=90,11=11/1;
 10/13=10,15=4/2;
 11/6=3,8=1,9=11,15=111,16=1/1,2,10;
 10/6=1/2;
 6/7=2,8=2,9=2,10=2,18=1,28=1/1;
 7/8=1,10=1,25=1/1,2,3,16;
 1/10=4,30=1/3;
 99//99;
 Structure from the checkpoint file:  /scratch/cn410101.134352/Gau-62079.chk
 --------------------
 Ammonia optimization
 --------------------
 Charge =  0 Multiplicity = 1
 Redundant internal coordinates found in file.
 N,0,0.0305400472,0.0618094485,0.0334430375
 H,0,0.056606242,0.0885240309,1.0652992487
 H,0,1.0240953258,0.0983939323,-0.2449961392
 H,0,-0.3405334283,0.9875885071,-0.2336860818
 Recover connectivity data from disk.

 GradGradGradGradGradGradGradGradGradGradGradGradGradGradGradGradGradGrad
 Berny optimization.
 Initialization pass.
                           ----------------------------
                           !    Initial Parameters    !
                           ! (Angstroms and Degrees)  !
 --------------------------                            --------------------------
 ! Name  Definition              Value          Derivative Info.                !
 --------------------------------------------------------------------------------
 ! R1    R(1,2)                  1.0325         calculate D2E/DX2 analytically  !
 ! R2    R(1,3)                  1.0325         calculate D2E/DX2 analytically  !
 ! R3    R(1,4)                  1.0325         calculate D2E/DX2 analytically  !
 ! A1    A(2,1,3)              104.1401         calculate D2E/DX2 analytically  !
 ! A2    A(2,1,4)              104.1475         calculate D2E/DX2 analytically  !
 ! A3    A(3,1,4)              104.1401         calculate D2E/DX2 analytically  !
 ! D1    D(2,1,4,3)            108.8631         calculate D2E/DX2 analytically  !
 --------------------------------------------------------------------------------
 Trust Radius=3.00D-01 FncErr=1.00D-07 GrdErr=1.00D-07
 Number of steps in this run=      2 maximum allowed number of steps=      2.
 GradGradGradGradGradGradGradGradGradGradGradGradGradGradGradGradGradGrad

                          Input orientation:                          
 ---------------------------------------------------------------------
 Center     Atomic      Atomic             Coordinates (Angstroms)
 Number     Number       Type             X           Y           Z
 ---------------------------------------------------------------------
      1          7           0        0.030540    0.061809    0.033443
      2          1           0        0.056606    0.088524    1.065299
      3          1           0        1.024095    0.098394   -0.244996
      4          1           0       -0.340533    0.987589   -0.233686
 ---------------------------------------------------------------------
                    Distance matrix (angstroms):
                    1          2          3          4
     1  N    0.000000
     2  H    1.032531   0.000000
     3  H    1.032482   1.628805   0.000000
     4  H    1.032531   1.628926   1.628805   0.000000
 Stoichiometry    H3N
 Framework group  CS[SG(HN),X(H2)]
 Deg. of freedom     4
 Full point group                 CS      NOp   2
 Largest Abelian subgroup         CS      NOp   2
 Largest concise Abelian subgroup CS      NOp   2
                         Standard orientation:                         
 ---------------------------------------------------------------------
 Center     Atomic      Atomic             Coordinates (Angstroms)
 Number     Number       Type             X           Y           Z
 ---------------------------------------------------------------------
      1          7           0        0.000000    0.127881    0.000000
      2          1           0        0.470184   -0.298378    0.814463
      3          1           0       -0.940368   -0.298413    0.000000
      4          1           0        0.470184   -0.298378   -0.814463
 ---------------------------------------------------------------------
 Rotational constants (GHZ):    282.5480946    282.5063690    189.0045576
 Standard basis: STO-3G (5D, 7F)
 There are     6 symmetry adapted basis functions of A'  symmetry.
 There are     2 symmetry adapted basis functions of A"  symmetry.
 Integral buffers will be    131072 words long.
 Raffenetti 1 integral format.
 Two-electron integral symmetry is turned on.
     8 basis functions,    24 primitive gaussians,     8 cartesian basis functions
     5 alpha electrons        5 beta electrons
       nuclear repulsion energy        11.7374095231 Hartrees.
 NAtoms=    4 NActive=    4 NUniq=    3 SFac= 1.78D+00 NAtFMM=   60 NAOKFM=F Big=F
 One-electron integrals computed using PRISM.
 NBasis=     8 RedAO= T  NBF=     6     2
 NBsUse=     8 1.00D-06 NBFU=     6     2
 Initial guess read from the checkpoint file:  /scratch/cn410101.134352/Gau-62079.chk
 B after Tr=     0.000000    0.000000    0.000000
         Rot=    1.000000    0.000000    0.000000    0.000000 Ang=   0.00 deg.
 Initial guess orbital symmetries:
       Occupied  (A') (A') (A") (A') (A')
       Virtual   (A') (A") (A')
 Requested convergence on RMS density matrix=1.00D-08 within 128 cycles.
 Requested convergence on MAX density matrix=1.00D-06.
 Requested convergence on             energy=1.00D-06.
 No special actions if energy rises.
 Keep R1 ints in memory in canonical form, NReq=820435.
 SCF Done:  E(RHF) =  -55.4554197503     A.U. after    1 cycles
             Convg  =    0.1081D-09             -V/T =  2.0069
 Range of M.O.s used for correlation:     1     8
 NBasis=     8 NAE=     5 NBE=     5 NFC=     0 NFV=     0
 NROrb=      8 NOA=     5 NOB=     5 NVA=     3 NVB=     3
          Differentiating once with respect to electric field.
                with respect to dipole field.
          Electric field/nuclear overlap derivatives assumed to be zero.
          Keep R1 ints in memory in canonical form, NReq=801033.
          There are     3 degrees of freedom in the 1st order CPHF.  IDoFFX=0.
      3 vectors produced by pass  0 Test12= 5.00D-16 3.33D-08 XBig12= 8.76D-01 5.81D-01.
 AX will form     3 AO Fock derivatives at one time.
      3 vectors produced by pass  1 Test12= 5.00D-16 3.33D-08 XBig12= 4.49D-03 6.54D-02.
      3 vectors produced by pass  2 Test12= 5.00D-16 3.33D-08 XBig12= 8.87D-06 2.53D-03.
      3 vectors produced by pass  3 Test12= 5.00D-16 3.33D-08 XBig12= 7.78D-09 8.71D-05.
      2 vectors produced by pass  4 Test12= 5.00D-16 3.33D-08 XBig12= 5.51D-13 5.70D-07.
 Inverted reduced A of dimension    14 with in-core refinement.
 End of Minotr Frequency-dependent properties file   721 does not exist.
 End of Minotr Frequency-dependent properties file   722 does not exist.
 Symmetrizing basis deriv contribution to polar:
 IMax=3 JMax=2 DiffMx= 0.00D+00
 G2DrvN: will do     5 centers at a time, making    1 passes doing MaxLOS=1.
 Calling FoFCou, ICntrl=  3107 FMM=F I1Cent=   0 AccDes= 0.00D+00.
 FoFDir/FoFCou used for L=0 through L=1.
 End of G2Drv Frequency-dependent properties file   721 does not exist.
 End of G2Drv Frequency-dependent properties file   722 does not exist.
          IDoAtm=1111
          Differentiating once with respect to electric field.
                with respect to dipole field.
          Differentiating once with respect to nuclear coordinates.
          Keep R1 ints in memory in canonical form, NReq=801120.
          There are    12 degrees of freedom in the 1st order CPHF.  IDoFFX=4.
 Will reuse    3 saved solutions.
      9 vectors produced by pass  0 Test12= 1.25D-16 8.33D-09 XBig12= 3.61D-02 1.81D-01.
 AX will form     9 AO Fock derivatives at one time.
      6 vectors produced by pass  1 Test12= 1.25D-16 8.33D-09 XBig12= 4.40D-05 4.58D-03.
 Inverted reduced A of dimension    15 with in-core refinement.
 Isotropic polarizability for W=    0.000000        4.18 Bohr**3.
 End of Minotr Frequency-dependent properties file   721 does not exist.
 End of Minotr Frequency-dependent properties file   722 does not exist.

 **********************************************************************

            Population analysis using the SCF density.

 **********************************************************************

 Orbital symmetries:
       Occupied  (A') (A') (A") (A') (A')
       Virtual   (A') (A") (A')
 The electronic state is 1-A'.
 Alpha  occ. eigenvalues --  -15.31284  -1.08676  -0.56152  -0.56151  -0.35858
 Alpha virt. eigenvalues --    0.62508   0.70013   0.70014
          Condensed to atoms (all electrons):
              1          2          3          4
     1  N    6.447154   0.331153   0.331156   0.331153
     2  H    0.331153   0.590996  -0.034514  -0.034505
     3  H    0.331156  -0.034514   0.590995  -0.034514
     4  H    0.331153  -0.034505  -0.034514   0.590996
 Mulliken atomic charges:
              1
     1  N   -0.440616
     2  H    0.146870
     3  H    0.146877
     4  H    0.146870
 Sum of Mulliken atomic charges =   0.00000
 Mulliken charges with hydrogens summed into heavy atoms:
              1
     1  N    0.000000
 Sum of Mulliken charges with hydrogens summed into heavy atoms =   0.00000
 APT atomic charges:
              1
     1  N   -0.251519
     2  H    0.083841
     3  H    0.083837
     4  H    0.083841
 Sum of APT charges=   0.00000
 APT Atomic charges with hydrogens summed into heavy atoms:
              1
     1  N    0.000000
     2  H    0.000000
     3  H    0.000000
     4  H    0.000000
 Sum of APT charges=   0.00000
 Electronic spatial extent (au):  <R**2>=             25.4272
 Charge=              0.0000 electrons
 Dipole moment (field-independent basis, Debye):
    X=              0.0000    Y=             -1.8766    Z=              0.0000  Tot=              1.8766
 Quadrupole moment (field-independent basis, Debye-Ang):
   XX=             -5.9917   YY=             -7.6411   ZZ=             -5.9913
   XY=              0.0001   XZ=              0.0000   YZ=              0.0000
 Traceless Quadrupole moment (field-independent basis, Debye-Ang):
   XX=              0.5497   YY=             -1.0997   ZZ=              0.5500
   XY=              0.0001   XZ=              0.0000   YZ=              0.0000
 Octapole moment (field-independent basis, Debye-Ang**2):
  XXX=             -0.5693  YYY=             -0.8200  ZZZ=              0.0000  XYY=              0.0000
  XXY=             -0.5686  XXZ=              0.0000  XZZ=              0.5694  YZZ=             -0.5687
  YYZ=              0.0000  XYZ=              0.0000
 Hexadecapole moment (field-independent basis, Debye-Ang**3):
 XXXX=             -9.1163 YYYY=             -6.8315 ZZZZ=             -9.1168 XXXY=              0.2569
 XXXZ=              0.0000 YYYX=              0.0000 YYYZ=              0.0000 ZZZX=              0.0000
 ZZZY=              0.0000 XXYY=             -2.6481 XXZZ=             -3.0388 YYZZ=             -2.6483
 XXYZ=              0.0000 YYXZ=              0.0000 ZZXY=             -0.2570
 N-N= 1.173740952308D+01 E-N=-1.536985108777D+02  KE= 5.507525804361D+01
 Symmetry A'   KE= 5.272753782343D+01
 Symmetry A"   KE= 2.347720220185D+00
  Exact polarizability:   5.557   0.000   1.428   0.000   0.000   5.558
 Approx polarizability:   4.182   0.000   1.549   0.000   0.000   4.183
 Calling FoFJK, ICntrl=    100127 FMM=F ISym2X=1 I1Cent= 0 IOpClX= 0 NMat=1 NMatS=1 NMatT=0.
 Full mass-weighted force constant matrix:
 Low frequencies ---  -28.6032  -25.7872   -7.2801    0.0004    0.0010    0.0012
 Low frequencies --- 1412.7061 2076.4449 2076.4899
 Harmonic frequencies (cm**-1), IR intensities (KM/Mole), Raman scattering
 activities (A**4/AMU), depolarization ratios for plane and unpolarized
 incident light, reduced masses (AMU), force constants (mDyne/A),
 and normal coordinates:
                     1                      2                      3
                    A'                     A'                     A"
 Frequencies --  1412.7061              2076.4449              2076.4899
 Red. masses --     1.1777                 1.0590                 1.0590
 Frc consts  --     1.3848                 2.6901                 2.6902
 IR Inten    --    80.6795                 1.6643                 1.6642
 Raman Activ --     4.8523                13.2509                13.2508
 Depolar (P) --     0.3278                 0.7500                 0.7500
 Depolar (U) --     0.4937                 0.8571                 0.8571
  Atom  AN      X      Y      Z        X      Y      Z        X      Y      Z
     1   7     0.00   0.11   0.00     0.06   0.00   0.00     0.00   0.00   0.06
     2   1    -0.11  -0.53  -0.19    -0.52   0.13   0.40     0.40   0.23  -0.06
     3   1     0.22  -0.53   0.00     0.17  -0.26   0.00     0.00   0.00  -0.75
     4   1    -0.11  -0.53   0.19    -0.52   0.13  -0.40    -0.40  -0.23  -0.06
                     4                      5                      6
                    A'                     A"                     A'
 Frequencies --  3833.5485              4108.1651              4108.4851
 Red. masses --     1.0290                 1.0894                 1.0894
 Frc consts  --     8.9094                10.8326                10.8342
 IR Inten    --     8.0052                 5.0476                 5.0504
 Raman Activ --    55.8314                24.0907                24.0917
 Depolar (P) --     0.0800                 0.7500                 0.7500
 Depolar (U) --     0.1482                 0.8571                 0.8571
  Atom  AN      X      Y      Z        X      Y      Z        X      Y      Z
     1   7     0.00  -0.04   0.00     0.00   0.00   0.08     0.08   0.00   0.00
     2   1    -0.27   0.19  -0.47    -0.33   0.29  -0.55    -0.18   0.17  -0.33
     3   1     0.55   0.19   0.00     0.00   0.00   0.01    -0.74  -0.33   0.00
     4   1    -0.27   0.19   0.47     0.33  -0.29  -0.55    -0.18   0.17   0.33

 -------------------
 - Thermochemistry -
 -------------------
 Temperature   298.150 Kelvin.  Pressure   1.00000 Atm.
 Atom     1 has atomic number  7 and mass  14.00307
 Atom     2 has atomic number  1 and mass   1.00783
 Atom     3 has atomic number  1 and mass   1.00783
 Atom     4 has atomic number  1 and mass   1.00783
 Molecular mass:    17.02655 amu.
 Principal axes and moments of inertia in atomic units:
                           1         2         3
     Eigenvalues --     6.38738   6.38832   9.54867
           X            0.00000   1.00000  -0.00004
           Y            0.00000   0.00004   1.00000
           Z            1.00000   0.00000   0.00000
 This molecule is an asymmetric top.
 Rotational symmetry number  1.
 Rotational temperatures (Kelvin)     13.56015    13.55815     9.07078
 Rotational constants (GHZ):         282.54809   282.50637   189.00456
 Zero-point vibrational energy     105366.1 (Joules/Mol)
                                   25.18311 (Kcal/Mol)
 Vibrational temperatures:   2032.57  2987.54  2987.60  5515.61  5910.73
          (Kelvin)           5911.19
 
 Zero-point correction=                           0.040132 (Hartree/Particle)
 Thermal correction to Energy=                    0.042972
 Thermal correction to Enthalpy=                  0.043916
 Thermal correction to Gibbs Free Energy=         0.021020
 Sum of electronic and zero-point Energies=            -55.415288
 Sum of electronic and thermal Energies=               -55.412447
 Sum of electronic and thermal Enthalpies=             -55.411503
 Sum of electronic and thermal Free Energies=          -55.434400
 
                     E (Thermal)             CV                S
                      KCal/Mol        Cal/Mol-Kelvin    Cal/Mol-Kelvin
 Total                   26.966              6.081             48.190
 Electronic               0.000              0.000              0.000
 Translational            0.889              2.981             34.441
 Rotational               0.889              2.981             13.730
 Vibrational             25.188              0.119              0.019
                       Q            Log10(Q)             Ln(Q)
 Total Bot       0.214540D-09         -9.668491        -22.262524
 Total V=0       0.617777D+09          8.790832         20.241638
 Vib (Bot)       0.347689D-18        -18.458809        -42.502978
 Vib (V=0)       0.100119D+01          0.000514          0.001184
 Electronic      0.100000D+01          0.000000          0.000000
 Translational   0.276150D+07          6.441145         14.831285
 Rotational      0.223446D+03          2.349172          5.409169
 ***** Axes restored to original set *****
 -------------------------------------------------------------------
 Center     Atomic                   Forces (Hartrees/Bohr)
 Number     Number              X              Y              Z
 -------------------------------------------------------------------
      1        7           0.000010406    0.000065642    0.000042251
      2        1          -0.000034018   -0.000025926    0.000022307
      3        1           0.000069236   -0.000040067   -0.000048899
      4        1          -0.000045625    0.000000351   -0.000015659
 -------------------------------------------------------------------
 Cartesian Forces:  Max     0.000069236 RMS     0.000040462

 GradGradGradGradGradGradGradGradGradGradGradGradGradGradGradGradGradGrad
 Berny optimization.
 Internal  Forces:  Max     0.000078393 RMS     0.000048101
 Search for a local minimum.
 Step number   1 out of a maximum of    2
 All quantities printed in internal units (Hartrees-Bohrs-Radians)
 Second derivative matrix not updated -- analytic derivatives used.
 The second derivative matrix:
                          R1        R2        R3        A1        A2
           R1           0.57581
           R2          -0.01636   0.57596
           R3          -0.01636  -0.01636   0.57581
           A1           0.01010   0.01010  -0.00360   0.07879
           A2           0.02687   0.00643   0.02905  -0.05957   0.22548
           A3           0.00643   0.02687   0.02906  -0.05958  -0.02923
           D1           0.02274   0.02275   0.01656   0.04388   0.00423
                          A3        D1
           A3           0.22551
           D1           0.00425   0.05081
 ITU=  0
     Eigenvalues ---    0.07869   0.23626   0.25349   0.55302   0.59324
     Eigenvalues ---    0.59349
 Angle between quadratic step and forces=  41.40 degrees.
 Linear search not attempted -- first point.
 Iteration  1 RMS(Cart)=  0.00026519 RMS(Int)=  0.00000011
 Iteration  2 RMS(Cart)=  0.00000007 RMS(Int)=  0.00000008
 ClnCor:  largest displacement from symmetrization is 1.20D-08 for atom     4.
 Variable       Old X    -DE/DX   Delta X   Delta X   Delta X     New X
                                 (Linear)    (Quad)   (Total)
    R1        1.95120   0.00002   0.00000  -0.00002  -0.00002   1.95119
    R2        1.95111   0.00008   0.00000   0.00008   0.00008   1.95119
    R3        1.95120   0.00002   0.00000  -0.00002  -0.00002   1.95119
    A1        1.81759   0.00002   0.00000   0.00042   0.00042   1.81801
    A2        1.81772   0.00003   0.00000   0.00029   0.00029   1.81801
    A3        1.81759   0.00007   0.00000   0.00042   0.00042   1.81801
    D1        1.90002   0.00006   0.00000   0.00071   0.00071   1.90073
         Item               Value     Threshold  Converged?
 Maximum Force            0.000078     0.000450     YES
 RMS     Force            0.000048     0.000300     YES
 Maximum Displacement     0.000326     0.001800     YES
 RMS     Displacement     0.000265     0.001200     YES
 Predicted change in Energy=-4.635850D-08
 Optimization completed.
    -- Stationary point found.
                           ----------------------------
                           !   Optimized Parameters   !
                           ! (Angstroms and Degrees)  !
 --------------------------                            --------------------------
 ! Name  Definition              Value          Derivative Info.                !
 --------------------------------------------------------------------------------
 ! R1    R(1,2)                  1.0325         -DE/DX =    0.0                 !
 ! R2    R(1,3)                  1.0325         -DE/DX =    0.0001              !
 ! R3    R(1,4)                  1.0325         -DE/DX =    0.0                 !
 ! A1    A(2,1,3)              104.1401         -DE/DX =    0.0                 !
 ! A2    A(2,1,4)              104.1475         -DE/DX =    0.0                 !
 ! A3    A(3,1,4)              104.1401         -DE/DX =    0.0001              !
 ! D1    D(2,1,4,3)            108.8631         -DE/DX =    0.0001              !
 --------------------------------------------------------------------------------
 GradGradGradGradGradGradGradGradGradGradGradGradGradGradGradGradGradGrad

 1\1\GINC-NODE47\Freq\RHF\STO-3G\H3N1\cn410101\04-Sep-2018\0\\#N Geom=A
 llCheck Guess=TCheck SCRF=Check GenChk RHF/STO-3G Freq\\Ammonia optimi
 zation\\0,1\N,0.0305400472,0.0618094485,0.0334430375\H,0.056606242,0.0
 885240309,1.0652992487\H,1.0240953258,0.0983939323,-0.2449961392\H,-0.
 3405334283,0.9875885071,-0.2336860818\\Version=EM64L-G09RevC.01\State=
 1-A'\HF=-55.4554198\RMSD=1.081e-10\RMSF=4.046e-05\ZeroPoint=0.0401318\
 Thermal=0.0429723\Dipole=0.3744218,0.5710218,0.2807481\DipoleDeriv=-0.
 2375337,-0.0720479,-0.0354172,-0.0720675,-0.3001782,-0.0540356,-0.0354
 308,-0.0540416,-0.2168439,0.1423702,0.0533585,-0.0747101,0.0525847,0.1
 903403,-0.1122228,-0.0138522,-0.0188393,-0.0811876,-0.0860607,-0.00483
 36,0.0560505,-0.0937136,0.1882986,0.0840795,-0.0054659,0.0569061,0.149
 2722,0.1812243,0.0235231,0.0540768,0.1131965,-0.0784607,0.082179,0.054
 7488,0.0159749,0.1487594\Polar=4.4951533,-1.6197254,3.0871734,-0.79608
 69,-1.2149881,4.9605457\PolarDeriv=-3.9117301,-1.1072388,0.0531703,0.3
 826398,-0.1713509,-0.9188813,-1.4921317,0.3056313,-4.4449708,-0.171486
 ,0.208088,-1.3492134,0.1934527,-0.171403,0.0186899,-0.6664386,-0.96409
 03,-3.7945975,0.190178,-0.185396,-0.120981,1.905861,0.0314782,0.428314
 9,0.1357427,-0.3146525,-0.0820465,0.0389516,1.9403019,0.6299196,0.1683
 651,-0.0469975,0.1384672,-0.34755,-0.5825395,5.8971084,5.4131275,-0.51
 34572,0.0882229,-1.3752378,0.0578065,0.5685926,0.6236987,1.7623292,-0.
 037483,-0.112682,-0.872125,0.1542545,-0.1137517,0.1424684,-0.1508639,2
 .0023777,-0.2004653,-1.0786518,-1.6915754,1.8060921,-0.0204122,-0.9132
 63,0.0820663,-0.0780261,0.7326903,-1.7533079,4.5645003,0.2452165,-1.27
 62649,0.5650392,-0.248066,0.0759321,-0.0062933,-0.9883892,1.7470952,-1
 .0238591\HyperPolar=6.7759343,0.9203954,-2.886147,5.2212093,-3.2380671
 ,1.2148757,-2.0800821,0.1623207,0.0396958,8.3575484\PG=CS [SG(H1N1),X(
 H2)]\NImag=0\\0.71110359,-0.19761205,0.53913113,-0.09718865,-0.1482236
 9,0.76770154,-0.07481535,0.03420812,-0.04236278,0.07330142,0.03344802,
 -0.04466743,-0.05913705,-0.02342337,0.05263508,0.01710040,0.03210730,-
 0.55312803,0.00192847,-0.00330614,0.57658851,-0.51886361,0.03584691,0.
 15386806,0.00239046,-0.00782790,-0.01946718,0.53433469,-0.05101057,-0.
 04543994,0.05109887,-0.00159083,-0.00531750,-0.00795532,-0.00523065,0.
 05293934,0.09375154,0.02454387,-0.10841110,0.06607710,0.00135864,-0.01
 203535,-0.13991557,-0.02303613,0.11536542,-0.11742463,0.12755702,-0.01
 431663,-0.00087652,-0.00219676,0.00043832,-0.01786154,0.05783204,-0.01
 991307,0.13616269,0.21517460,-0.44902377,0.15626187,-0.00919392,-0.002
 65015,-0.02084584,-0.02278837,-0.00218190,-0.00286638,-0.18319231,0.45
 385582,-0.01366329,0.09157252,-0.10616241,-0.02564279,0.06108454,-0.01
 142513,0.00551469,-0.02010741,0.00508104,0.03379139,-0.13254965,0.1125
 0650\\-0.00001041,-0.00006564,-0.00004225,0.00003402,0.00002593,-0.000
 02231,-0.00006924,0.00004007,0.00004890,0.00004562,-0.00000035,0.00001
 566\\\@


 IN SO FAR AS QUANTUM MECHANICS IS CORRECT, CHEMICAL 
 QUESTIONS ARE PROBLEMS IN APPLIED MATHEMATICS.

                    -- EYRING, WALTER, & KIMBALL, 1944
 Job cpu time:  0 days  0 hours  0 minutes  2.9 seconds.
 File lengths (MBytes):  RWF=      5 Int=      0 D2E=      0 Chk=      1 Scr=      1
 Normal termination of Gaussian 09 at Tue Sep  4 18:27:18 2018.
