 Entering Gaussian System, Link 0=g09
 Input=H2S.com
 Output=H2S.log
 Initial command:
 /global/g09-revC/l1.exe /scratch/cn410101.134128/Gau-32347.inp -scrdir=/scratch/cn410101.134128/
 Entering Link 1 = /global/g09-revC/l1.exe PID=     32348.
  
 Copyright (c) 1988,1990,1992,1993,1995,1998,2003,2009,2011,
            Gaussian, Inc.  All Rights Reserved.
  
 This is part of the Gaussian(R) 09 program.  It is based on
 the Gaussian(R) 03 system (copyright 2003, Gaussian, Inc.),
 the Gaussian(R) 98 system (copyright 1998, Gaussian, Inc.),
 the Gaussian(R) 94 system (copyright 1995, Gaussian, Inc.),
 the Gaussian 92(TM) system (copyright 1992, Gaussian, Inc.),
 the Gaussian 90(TM) system (copyright 1990, Gaussian, Inc.),
 the Gaussian 88(TM) system (copyright 1988, Gaussian, Inc.),
 the Gaussian 86(TM) system (copyright 1986, Carnegie Mellon
 University), and the Gaussian 82(TM) system (copyright 1983,
 Carnegie Mellon University). Gaussian is a federally registered
 trademark of Gaussian, Inc.
  
 This software contains proprietary and confidential information,
 including trade secrets, belonging to Gaussian, Inc.
  
 This software is provided under written license and may be
 used, copied, transmitted, or stored only in accord with that
 written license.
  
 The following legend is applicable only to US Government
 contracts under FAR:
  
                    RESTRICTED RIGHTS LEGEND
  
 Use, reproduction and disclosure by the US Government is
 subject to restrictions as set forth in subparagraphs (a)
 and (c) of the Commercial Computer Software - Restricted
 Rights clause in FAR 52.227-19.
  
 Gaussian, Inc.
 340 Quinnipiac St., Bldg. 40, Wallingford CT 06492
  
  
 ---------------------------------------------------------------
 Warning -- This program may not be used in any manner that
 competes with the business of Gaussian, Inc. or will provide
 assistance to any competitor of Gaussian, Inc.  The licensee
 of this program is prohibited from giving any competitor of
 Gaussian, Inc. access to this program.  By using this program,
 the user acknowledges that Gaussian, Inc. is engaged in the
 business of creating and licensing software in the field of
 computational chemistry and represents and warrants to the
 licensee that it is not a competitor of Gaussian, Inc. and that
 it will not use this program in any manner prohibited above.
 ---------------------------------------------------------------
  

 Cite this work as:
 Gaussian 09, Revision C.01,
 M. J. Frisch, G. W. Trucks, H. B. Schlegel, G. E. Scuseria, 
 M. A. Robb, J. R. Cheeseman, G. Scalmani, V. Barone, B. Mennucci, 
 G. A. Petersson, H. Nakatsuji, M. Caricato, X. Li, H. P. Hratchian, 
 A. F. Izmaylov, J. Bloino, G. Zheng, J. L. Sonnenberg, M. Hada, 
 M. Ehara, K. Toyota, R. Fukuda, J. Hasegawa, M. Ishida, T. Nakajima, 
 Y. Honda, O. Kitao, H. Nakai, T. Vreven, J. A. Montgomery, Jr., 
 J. E. Peralta, F. Ogliaro, M. Bearpark, J. J. Heyd, E. Brothers, 
 K. N. Kudin, V. N. Staroverov, T. Keith, R. Kobayashi, J. Normand, 
 K. Raghavachari, A. Rendell, J. C. Burant, S. S. Iyengar, J. Tomasi, 
 M. Cossi, N. Rega, J. M. Millam, M. Klene, J. E. Knox, J. B. Cross, 
 V. Bakken, C. Adamo, J. Jaramillo, R. Gomperts, R. E. Stratmann, 
 O. Yazyev, A. J. Austin, R. Cammi, C. Pomelli, J. W. Ochterski, 
 R. L. Martin, K. Morokuma, V. G. Zakrzewski, G. A. Voth, 
 P. Salvador, J. J. Dannenberg, S. Dapprich, A. D. Daniels, 
 O. Farkas, J. B. Foresman, J. V. Ortiz, J. Cioslowski, 
 and D. J. Fox, Gaussian, Inc., Wallingford CT, 2010.
 
 ******************************************
 Gaussian 09:  EM64L-G09RevC.01 23-Sep-2011
                 2-Sep-2018 
 ******************************************
 %nproc=2
 Will use up to    2 processors via shared memory.
 %mem=1GB
 -------------------
 #HF STO-3G opt freq
 -------------------
 1/18=20,19=15,38=1/1,3;
 2/9=110,12=2,17=6,18=5,40=1/2;
 3/6=3,11=9,16=1,25=1,30=1,71=1/1,2,3;
 4//1;
 5/5=2,38=5/2;
 6/7=2,8=2,9=2,10=2,28=1/1;
 7//1,2,3,16;
 1/18=20,19=15/3(2);
 2/9=110/2;
 99//99;
 2/9=110/2;
 3/6=3,11=9,16=1,25=1,30=1,71=1/1,2,3;
 4/5=5,16=3/1;
 5/5=2,38=5/2;
 7//1,2,3,16;
 1/18=20,19=15/3(-5);
 2/9=110/2;
 6/7=2,8=2,9=2,10=2,19=2,28=1/1;
 99/9=1/99;
 ----------------
 H2S optimization
 ----------------
 Charge =  0 Multiplicity = 1
 Symbolic Z-Matrix:
 H
 S                    1     1. 
 H                    2     1.       1     92. 
 S                    3     2.       2     175.     1     0.       0
 H                    4     1.       3     92.      2     120.     0
 H                    4     1.       3     92.      2    -120.     0
 

 GradGradGradGradGradGradGradGradGradGradGradGradGradGradGradGradGradGrad
 Berny optimization.
 Initialization pass.
                           ----------------------------
                           !    Initial Parameters    !
                           ! (Angstroms and Degrees)  !
 --------------------------                            --------------------------
 ! Name  Definition              Value          Derivative Info.                !
 --------------------------------------------------------------------------------
 ! R1    R(1,2)                  1.0            estimate D2E/DX2                !
 ! R2    R(2,3)                  1.0            estimate D2E/DX2                !
 ! R3    R(3,4)                  2.0            estimate D2E/DX2                !
 ! R4    R(4,5)                  1.0            estimate D2E/DX2                !
 ! R5    R(4,6)                  1.0            estimate D2E/DX2                !
 ! A1    A(1,2,3)               92.0            estimate D2E/DX2                !
 ! A2    A(3,4,5)               92.0            estimate D2E/DX2                !
 ! A3    A(3,4,6)               92.0            estimate D2E/DX2                !
 ! A4    A(5,4,6)              119.8792         estimate D2E/DX2                !
 ! A5    L(2,3,4,1,-1)         175.0            estimate D2E/DX2                !
 ! A6    L(2,3,4,1,-2)         180.0            estimate D2E/DX2                !
 ! D1    D(1,2,4,5)            119.9391         estimate D2E/DX2                !
 ! D2    D(1,2,4,6)           -119.9391         estimate D2E/DX2                !
 ! D3    D(3,4,5,6)             93.4592         estimate D2E/DX2                !
 --------------------------------------------------------------------------------
 Trust Radius=3.00D-01 FncErr=1.00D-07 GrdErr=1.00D-07
 Number of steps in this run=     24 maximum allowed number of steps=    100.
 GradGradGradGradGradGradGradGradGradGradGradGradGradGradGradGradGradGrad

                          Input orientation:                          
 ---------------------------------------------------------------------
 Center     Atomic      Atomic             Coordinates (Angstroms)
 Number     Number       Type             X           Y           Z
 ---------------------------------------------------------------------
      1          1           0        0.000000    0.000000    0.000000
      2         16           0        0.000000    0.000000    1.000000
      3          1           0        0.999391    0.000000    1.034899
      4         16           0        2.996650    0.000000    0.930228
      5          1           0        3.057654    0.865498    1.427412
      6          1           0        3.057654   -0.865498    1.427412
 ---------------------------------------------------------------------
                    Distance matrix (angstroms):
                    1          2          3          4          5
     1  H    0.000000
     2  S    1.000000   0.000000
     3  H    1.438680   1.000000   0.000000
     4  S    3.137712   2.997462   2.000000   0.000000
     5  H    3.483653   3.206402   2.267068   1.000000   0.000000
     6  H    3.483653   3.206402   2.267068   1.000000   1.730996
                    6
     6  H    0.000000
 Stoichiometry    H4S2
 Framework group  CS[SG(H2S2),X(H2)]
 Deg. of freedom     8
 Full point group                 CS      NOp   2
 Largest Abelian subgroup         CS      NOp   2
 Largest concise Abelian subgroup CS      NOp   2
                         Standard orientation:                         
 ---------------------------------------------------------------------
 Center     Atomic      Atomic             Coordinates (Angstroms)
 Number     Number       Type             X           Y           Z
 ---------------------------------------------------------------------
      1          1           0        1.001267    1.506576    0.000000
      2         16           0        0.001538    1.529854    0.000000
      3          1           0       -0.056615    0.531546    0.000000
      4         16           0        0.001538   -1.467608    0.000000
      5          1           0       -0.496932   -1.517023    0.865498
      6          1           0       -0.496932   -1.517023   -0.865498
 ---------------------------------------------------------------------
 Rotational constants (GHZ):    170.6975824      3.3161110      3.3148251
 Standard basis: STO-3G (5D, 7F)
 There are    17 symmetry adapted basis functions of A'  symmetry.
 There are     5 symmetry adapted basis functions of A"  symmetry.
 Integral buffers will be    131072 words long.
 Raffenetti 1 integral format.
 Two-electron integral symmetry is turned on.
    22 basis functions,    66 primitive gaussians,    22 cartesian basis functions
    18 alpha electrons       18 beta electrons
       nuclear repulsion energy        92.7192381680 Hartrees.



 Warning!  S  atom    2 may be hypervalent but has no d functions.
 Warning!  S  atom    4 may be hypervalent but has no d functions.



 NAtoms=    6 NActive=    6 NUniq=    5 SFac= 1.44D+00 NAtFMM=   60 NAOKFM=F Big=F
 One-electron integrals computed using PRISM.
 NBasis=    22 RedAO= T  NBF=    17     5
 NBsUse=    22 1.00D-06 NBFU=    17     5
 Harris functional with IExCor=  205 diagonalized for initial guess.
 ExpMin= 1.69D-01 ExpMax= 5.33D+02 ExpMxC= 5.33D+02 IAcc=1 IRadAn=         1 AccDes= 0.00D+00
 HarFok:  IExCor=  205 AccDes= 0.00D+00 IRadAn=         1 IDoV= 1
 ScaDFX=  1.000000  1.000000  1.000000  1.000000
 FoFCou: FMM=F IPFlag=           0 FMFlag=      100000 FMFlg1=           0
         NFxFlg=           0 DoJE=T BraDBF=F KetDBF=T FulRan=T
         Omega=  0.000000  0.000000  1.000000  0.000000  0.000000 ICntrl=     500 IOpCl=  0
         NMat0=    1 NMatS0=    1 NMatT0=    0 NMatD0=    1 NMtDS0=    0 NMtDT0=    0
         I1Cent=           4 NGrid=           0.
 Petite list used in FoFCou.
 Initial guess orbital symmetries:
       Occupied  (A') (A') (A') (A') (A") (A') (A') (A') (A') (A")
                 (A') (A') (A") (A') (A') (A') (A") (A')
       Virtual   (A') (A') (A") (A')
 The electronic state of the initial guess is 1-A'.
 Requested convergence on RMS density matrix=1.00D-08 within 128 cycles.
 Requested convergence on MAX density matrix=1.00D-06.
 Requested convergence on             energy=1.00D-06.
 No special actions if energy rises.
 Keep R1 ints in memory in canonical form, NReq=852083.
 SCF Done:  E(RHF) =  -788.049732002     A.U. after    8 cycles
             Convg  =    0.2481D-08             -V/T =  2.0087

 **********************************************************************

            Population analysis using the SCF density.

 **********************************************************************

 Orbital symmetries:
       Occupied  (A') (A') (A') (A') (A") (A') (A') (A') (A') (A")
                 (A') (A') (A") (A') (A') (A') (A') (A")
       Virtual   (A') (A') (A") (A')
 The electronic state is 1-A'.
 Alpha  occ. eigenvalues --  -90.77245 -90.72274  -8.69806  -8.65014  -6.33872
 Alpha  occ. eigenvalues --   -6.32537  -6.32105  -6.28543  -6.28112  -6.27166
 Alpha  occ. eigenvalues --   -1.05044  -1.01000  -0.70877  -0.62359  -0.42259
 Alpha  occ. eigenvalues --   -0.38168  -0.29873  -0.28850
 Alpha virt. eigenvalues --    0.64619   0.71334   0.80924   0.98459
          Condensed to atoms (all electrons):
              1          2          3          4          5          6
     1  H    0.828209   0.292525  -0.068415   0.001113   0.000061   0.000061
     2  S    0.292525  15.400328   0.302355  -0.036807  -0.000008  -0.000008
     3  H   -0.068415   0.302355   0.804540   0.001215  -0.003977  -0.003977
     4  S    0.001113  -0.036807   0.001215  15.306657   0.322581   0.322581
     5  H    0.000061  -0.000008  -0.003977   0.322581   0.735653  -0.034820
     6  H    0.000061  -0.000008  -0.003977   0.322581  -0.034820   0.735653
 Mulliken atomic charges:
              1
     1  H   -0.053555
     2  S    0.041614
     3  H   -0.031739
     4  S    0.082660
     5  H   -0.019490
     6  H   -0.019490
 Sum of Mulliken atomic charges =   0.00000
 Mulliken charges with hydrogens summed into heavy atoms:
              1
     2  S   -0.043680
     4  S    0.043680
 Sum of Mulliken charges with hydrogens summed into heavy atoms =   0.00000
 Electronic spatial extent (au):  <R**2>=            349.5710
 Charge=              0.0000 electrons
 Dipole moment (field-independent basis, Debye):
    X=             -0.7713    Y=             -1.6335    Z=              0.0000  Tot=              1.8064
 Quadrupole moment (field-independent basis, Debye-Ang):
   XX=            -24.2194   YY=            -27.5842   ZZ=            -24.2202
   XY=              3.7231   XZ=              0.0000   YZ=              0.0000
 Traceless Quadrupole moment (field-independent basis, Debye-Ang):
   XX=              1.1219   YY=             -2.2430   ZZ=              1.1211
   XY=              3.7231   XZ=              0.0000   YZ=              0.0000
 Octapole moment (field-independent basis, Debye-Ang**2):
  XXX=             -1.0305  YYY=             -4.2801  ZZZ=              0.0000  XYY=             -0.9478
  XXY=              0.4025  XXZ=              0.0000  XZZ=              0.1708  YZZ=             -2.8188
  YYZ=              0.0000  XYZ=              0.0000
 Hexadecapole moment (field-independent basis, Debye-Ang**3):
 XXXX=            -28.4257 YYYY=           -359.8293 ZZZZ=            -27.9496 XXXY=             -5.9163
 XXXZ=              0.0000 YYYX=              5.8341 YYYZ=              0.0000 ZZZX=              0.0000
 ZZZY=              0.0000 XXYY=            -62.1054 XXZZ=             -9.3859 YYZZ=            -62.2719
 XXYZ=              0.0000 YYXZ=              0.0000 ZZXY=             -1.9701
 N-N= 9.271923816798D+01 E-N=-2.059919926678D+03  KE= 7.812840651457D+02
 Symmetry A'   KE= 7.085540046730D+02
 Symmetry A"   KE= 7.273006047268D+01
 Calling FoFJK, ICntrl=      2127 FMM=F ISym2X=1 I1Cent= 0 IOpClX= 0 NMat=1 NMatS=1 NMatT=0.
 ***** Axes restored to original set *****
 -------------------------------------------------------------------
 Center     Atomic                   Forces (Hartrees/Bohr)
 Number     Number              X              Y              Z
 -------------------------------------------------------------------
      1        1          -0.011698325    0.000000000   -0.546705613
      2       16          -0.563574712    0.000000000    0.516225380
      3        1           0.526061790    0.000000000    0.032497597
      4       16          -0.028454131    0.000000000   -0.638135323
      5        1           0.038832689    0.437478361    0.318058980
      6        1           0.038832689   -0.437478361    0.318058980
 -------------------------------------------------------------------
 Cartesian Forces:  Max     0.638135323 RMS     0.346174813

 GradGradGradGradGradGradGradGradGradGradGradGradGradGradGradGradGradGrad
 Berny optimization.
 Internal  Forces:  Max     0.576018364 RMS     0.295563060
 Search for a local minimum.
 Step number   1 out of a maximum of   24
 All quantities printed in internal units (Hartrees-Bohrs-Radians)
 Mixed Optimization -- RFO/linear search
 Second derivative matrix not updated -- first step.
 The second derivative matrix:
                          R1        R2        R3        R4        R5
           R1           0.93245
           R2           0.00000   0.93245
           R3           0.00000   0.00000   0.05712
           R4           0.00000   0.00000   0.00000   0.93245
           R5           0.00000   0.00000   0.00000   0.00000   0.93245
           A1           0.00000   0.00000   0.00000   0.00000   0.00000
           A2           0.00000   0.00000   0.00000   0.00000   0.00000
           A3           0.00000   0.00000   0.00000   0.00000   0.00000
           A4           0.00000   0.00000   0.00000   0.00000   0.00000
           A5           0.00000   0.00000   0.00000   0.00000   0.00000
           A6           0.00000   0.00000   0.00000   0.00000   0.00000
           D1           0.00000   0.00000   0.00000   0.00000   0.00000
           D2           0.00000   0.00000   0.00000   0.00000   0.00000
           D3           0.00000   0.00000   0.00000   0.00000   0.00000
                          A1        A2        A3        A4        A5
           A1           0.16000
           A2           0.00000   0.16000
           A3           0.00000   0.00000   0.16000
           A4           0.00000   0.00000   0.00000   0.16000
           A5           0.00000   0.00000   0.00000   0.00000   0.00230
           A6           0.00000   0.00000   0.00000   0.00000   0.00000
           D1           0.00000   0.00000   0.00000   0.00000   0.00000
           D2           0.00000   0.00000   0.00000   0.00000   0.00000
           D3           0.00000   0.00000   0.00000   0.00000   0.00000
                          A6        D1        D2        D3
           A6           0.00230
           D1           0.00000   0.00230
           D2           0.00000   0.00000   0.00230
           D3           0.00000   0.00000   0.00000   0.04998
 ITU=  0
     Eigenvalues ---    0.00230   0.00230   0.00230   0.05712   0.08990
     Eigenvalues ---    0.10884   0.16000   0.16000   0.93245   0.93245
     Eigenvalues ---    0.93245   0.93245
 RFO step:  Lambda=-7.38481529D-01 EMin= 2.30000000D-03
 Linear search not attempted -- first point.
 Maximum step size (   0.300) exceeded in Quadratic search.
    -- Step size scaled by   0.449
 Iteration  1 RMS(Cart)=  0.08806271 RMS(Int)=  0.00104451
 Iteration  2 RMS(Cart)=  0.00132125 RMS(Int)=  0.00000279
 Iteration  3 RMS(Cart)=  0.00000098 RMS(Int)=  0.00000253
 ClnCor:  largest displacement from symmetrization is 2.40D-04 for atom     6.
 Variable       Old X    -DE/DX   Delta X   Delta X   Delta X     New X
                                 (Linear)    (Quad)   (Total)
    R1        1.88973   0.54671   0.00000   0.14696   0.14696   2.03668
    R2        1.88973   0.57602   0.00000   0.15484   0.15484   2.04456
    R3        3.77945   0.04923   0.00000   0.02780   0.02780   3.80725
    R4        1.88973   0.53914   0.00000   0.14492   0.14489   2.03462
    R5        1.88973   0.53914   0.00000   0.14492   0.14489   2.03462
    A1        1.60570   0.02211   0.00000   0.01105   0.01105   1.61675
    A2        1.60570   0.00283   0.00000   0.00132   0.00134   1.60704
    A3        1.60570   0.00291   0.00000   0.00146   0.00134   1.60704
    A4        2.09229  -0.07349   0.00000  -0.03895  -0.03893   2.05335
    A5        3.05433   0.00144   0.00000   0.00095   0.00095   3.05528
    A6        3.14159   0.00000   0.00000   0.00000   0.00000   3.14159
    D1        2.09333   0.03638   0.00000   0.01936   0.01936   2.11269
    D2       -2.09333  -0.03638   0.00000  -0.01936  -0.01936  -2.11269
    D3        1.63117  -0.00013   0.00000  -0.00027  -0.00041   1.63076
         Item               Value     Threshold  Converged?
 Maximum Force            0.576018     0.000450     NO 
 RMS     Force            0.295563     0.000300     NO 
 Maximum Displacement     0.168000     0.001800     NO 
 RMS     Displacement     0.088427     0.001200     NO 
 Predicted change in Energy=-2.906796D-01
 GradGradGradGradGradGradGradGradGradGradGradGradGradGradGradGradGradGrad

                          Input orientation:                          
 ---------------------------------------------------------------------
 Center     Atomic      Atomic             Coordinates (Angstroms)
 Number     Number       Type             X           Y           Z
 ---------------------------------------------------------------------
      1          1           0       -0.088902    0.000000   -0.060869
      2         16           0       -0.061712    0.000000    1.016554
      3          1           0        1.019991    0.000000    1.038978
      4         16           0        3.030368    0.000000    0.906933
      5          1           0        3.105739    0.921183    1.459170
      6          1           0        3.105739   -0.921183    1.459170
 ---------------------------------------------------------------------
                    Distance matrix (angstroms):
                    1          2          3          4          5
     1  H    0.000000
     2  S    1.077766   0.000000
     3  H    1.561828   1.081935   0.000000
     4  S    3.265958   3.094022   2.014709   0.000000
     5  H    3.655794   3.328248   2.318510   1.076673   0.000000
     6  H    3.655794   3.328248   2.318510   1.076673   1.842367
                    6
     6  H    0.000000
 Stoichiometry    H4S2
 Framework group  CS[SG(H2S2),X(H2)]
 Deg. of freedom     8
 Full point group                 CS      NOp   2
 Largest Abelian subgroup         CS      NOp   2
 Largest concise Abelian subgroup CS      NOp   2
                         Standard orientation:                         
 ---------------------------------------------------------------------
 Center     Atomic      Atomic             Coordinates (Angstroms)
 Number     Number       Type             X           Y           Z
 ---------------------------------------------------------------------
      1          1           0        1.080270    1.569420    0.000000
      2         16           0        0.002560    1.580421    0.000000
      3          1           0       -0.058175    0.500192    0.000000
      4         16           0        0.002560   -1.513602    0.000000
      5          1           0       -0.552001   -1.569360    0.921183
      6          1           0       -0.552001   -1.569360   -0.921183
 ---------------------------------------------------------------------
 Rotational constants (GHZ):    147.3186430      3.1086472      3.1084629
 Standard basis: STO-3G (5D, 7F)
 There are    17 symmetry adapted basis functions of A'  symmetry.
 There are     5 symmetry adapted basis functions of A"  symmetry.
 Integral buffers will be    131072 words long.
 Raffenetti 1 integral format.
 Two-electron integral symmetry is turned on.
    22 basis functions,    66 primitive gaussians,    22 cartesian basis functions
    18 alpha electrons       18 beta electrons
       nuclear repulsion energy        88.4483967080 Hartrees.



 Warning!  S  atom    2 may be hypervalent but has no d functions.
 Warning!  S  atom    4 may be hypervalent but has no d functions.



 NAtoms=    6 NActive=    6 NUniq=    5 SFac= 1.44D+00 NAtFMM=   60 NAOKFM=F Big=F
 One-electron integrals computed using PRISM.
 NBasis=    22 RedAO= T  NBF=    17     5
 NBsUse=    22 1.00D-06 NBFU=    17     5
 Initial guess read from the read-write file.
 B after Tr=     0.000000    0.000000    0.000000
         Rot=    1.000000    0.000000    0.000000    0.000000 Ang=   0.00 deg.
 Initial guess orbital symmetries:
       Occupied  (A') (A') (A') (A') (A") (A') (A') (A') (A') (A")
                 (A') (A') (A") (A') (A') (A') (A') (A")
       Virtual   (A') (A') (A") (A')
 Harris functional with IExCor=  205 diagonalized for initial guess.
 ExpMin= 1.69D-01 ExpMax= 5.33D+02 ExpMxC= 5.33D+02 IAcc=1 IRadAn=         1 AccDes= 0.00D+00
 HarFok:  IExCor=  205 AccDes= 0.00D+00 IRadAn=         1 IDoV= 1
 ScaDFX=  1.000000  1.000000  1.000000  1.000000
 FoFCou: FMM=F IPFlag=           0 FMFlag=      100000 FMFlg1=           0
         NFxFlg=           0 DoJE=T BraDBF=F KetDBF=T FulRan=T
         Omega=  0.000000  0.000000  1.000000  0.000000  0.000000 ICntrl=     500 IOpCl=  0
         NMat0=    1 NMatS0=    1 NMatT0=    0 NMatD0=    1 NMtDS0=    0 NMtDT0=    0
         I1Cent=           4 NGrid=           0.
 Petite list used in FoFCou.
 Requested convergence on RMS density matrix=1.00D-08 within 128 cycles.
 Requested convergence on MAX density matrix=1.00D-06.
 Requested convergence on             energy=1.00D-06.
 No special actions if energy rises.
 Keep R1 ints in memory in canonical form, NReq=852083.
 SCF Done:  E(RHF) =  -788.316519354     A.U. after    8 cycles
             Convg  =    0.1184D-08             -V/T =  2.0098
 Calling FoFJK, ICntrl=      2127 FMM=F ISym2X=1 I1Cent= 0 IOpClX= 0 NMat=1 NMatS=1 NMatT=0.
 ***** Axes restored to original set *****
 -------------------------------------------------------------------
 Center     Atomic                   Forces (Hartrees/Bohr)
 Number     Number              X              Y              Z
 -------------------------------------------------------------------
      1        1          -0.014346253    0.000000000   -0.339475773
      2       16          -0.341471986    0.000000000    0.327787651
      3        1           0.314844780    0.000000000    0.013389441
      4       16          -0.019547775    0.000000000   -0.439457207
      5        1           0.030260617    0.262596883    0.218877944
      6        1           0.030260617   -0.262596883    0.218877944
 -------------------------------------------------------------------
 Cartesian Forces:  Max     0.439457207 RMS     0.219579081

 GradGradGradGradGradGradGradGradGradGradGradGradGradGradGradGradGradGrad
 Berny optimization.
 Using GEDIIS/GDIIS optimizer.
 Internal  Forces:  Max     0.356014580 RMS     0.185490726
 Search for a local minimum.
 Step number   2 out of a maximum of   24
 All quantities printed in internal units (Hartrees-Bohrs-Radians)
 Mixed Optimization -- RFO/linear search
 Update second derivatives using D2CorX and points    1    2
 DE= -2.67D-01 DEPred=-2.91D-01 R= 9.18D-01
 SS=  1.41D+00  RLast= 3.01D-01 DXNew= 5.0454D-01 9.0360D-01
 Trust test= 9.18D-01 RLast= 3.01D-01 DXMaxT set to 5.05D-01
 The second derivative matrix:
                          R1        R2        R3        R4        R5
           R1           1.05195
           R2           0.12917   1.07200
           R3           0.01125   0.01198   0.05765
           R4           0.11111   0.12022   0.01082   1.03551
           R5           0.11111   0.12022   0.01082   0.10307   1.03551
           A1           0.01446   0.01540   0.00066   0.01392   0.01392
           A2          -0.00156  -0.00166  -0.00005  -0.00152  -0.00152
           A3          -0.00084  -0.00089  -0.00002  -0.00082  -0.00082
           A4           0.00820   0.00861   0.00003   0.00812   0.00812
           A5          -0.00068  -0.00072  -0.00003  -0.00065  -0.00065
           A6           0.00000   0.00000   0.00000   0.00000   0.00000
           D1           0.00093   0.00098   0.00004   0.00089   0.00089
           D2          -0.00093  -0.00098  -0.00004  -0.00089  -0.00089
           D3          -0.00118  -0.00125  -0.00005  -0.00114  -0.00114
                          A1        A2        A3        A4        A5
           A1           0.16083
           A2          -0.00006   0.16000
           A3          -0.00003   0.00000   0.16000
           A4           0.00002   0.00002   0.00002   0.15954
           A5          -0.00003   0.00000   0.00000   0.00000   0.00230
           A6           0.00000   0.00000   0.00000   0.00000   0.00000
           D1           0.00005   0.00000   0.00000   0.00000   0.00000
           D2          -0.00005   0.00000   0.00000   0.00000   0.00000
           D3          -0.00006   0.00000   0.00000   0.00001   0.00000
                          A6        D1        D2        D3
           A6           0.00230
           D1           0.00000   0.00230
           D2           0.00000   0.00000   0.00230
           D3           0.00000   0.00000   0.00000   0.04999
 ITU=  1  0
 Use linear search instead of GDIIS.
 Linear search step of   0.600 exceeds DXMaxT=   0.505 but not scaled.
 Quartic linear search produced a step of  2.00000.
 Iteration  1 RMS(Cart)=  0.12486668 RMS(Int)=  0.05098006
 Iteration  2 RMS(Cart)=  0.05426530 RMS(Int)=  0.00017013
 Iteration  3 RMS(Cart)=  0.00025625 RMS(Int)=  0.00001347
 Iteration  4 RMS(Cart)=  0.00000004 RMS(Int)=  0.00001347
 ClnCor:  largest displacement from symmetrization is 3.94D-05 for atom     6.
 Variable       Old X    -DE/DX   Delta X   Delta X   Delta X     New X
                                 (Linear)    (Quad)   (Total)
    R1        2.03668   0.33973   0.29391   0.00000   0.29391   2.33060
    R2        2.04456   0.35601   0.30967   0.00000   0.30967   2.35423
    R3        3.80725   0.04098   0.05559   0.00000   0.05559   3.86284
    R4        2.03462   0.33906   0.28978   0.00000   0.28978   2.32439
    R5        2.03462   0.33906   0.28978   0.00000   0.28978   2.32439
    A1        1.61675   0.01177   0.02210   0.00000   0.02210   1.63886
    A2        1.60704   0.00355   0.00268   0.00000   0.00269   1.60973
    A3        1.60704   0.00319   0.00268   0.00000   0.00269   1.60973
    A4        2.05335  -0.07217  -0.07787   0.00000  -0.07786   1.97550
    A5        3.05528   0.00184   0.00190   0.00000   0.00190   3.05718
    A6        3.14159   0.00000   0.00000   0.00000   0.00000   3.14159
    D1        2.11269   0.03578   0.03872   0.00000   0.03873   2.15142
    D2       -2.11269  -0.03578  -0.03872   0.00000  -0.03873  -2.15142
    D3        1.63076   0.00059  -0.00081   0.00000  -0.00086   1.62990
         Item               Value     Threshold  Converged?
 Maximum Force            0.356015     0.000450     NO 
 RMS     Force            0.185491     0.000300     NO 
 Maximum Displacement     0.351488     0.001800     NO 
 RMS     Displacement     0.178698     0.001200     NO 
 Predicted change in Energy=-1.717986D-01
 GradGradGradGradGradGradGradGradGradGradGradGradGradGradGradGradGradGrad

                          Input orientation:                          
 ---------------------------------------------------------------------
 Center     Atomic      Atomic             Coordinates (Angstroms)
 Number     Number       Type             X           Y           Z
 ---------------------------------------------------------------------
      1          1           0       -0.274901    0.000000   -0.181481
      2         16           0       -0.184267    0.000000    1.048483
      3          1           0        1.061520    0.000000    1.041637
      4         16           0        3.097390    0.000000    0.858104
      5          1           0        3.205731    1.026803    1.526594
      6          1           0        3.205731   -1.026803    1.526594
 ---------------------------------------------------------------------
                    Distance matrix (angstroms):
                    1          2          3          4          5
     1  H    0.000000
     2  S    1.233299   0.000000
     3  H    1.811640   1.245806   0.000000
     4  S    3.528893   3.287175   2.044126   0.000000
     5  H    4.010816   3.574214   2.426345   1.230017   0.000000
     6  H    4.010816   3.574214   2.426345   1.230017   2.053607
                    6
     6  H    0.000000
 Stoichiometry    H4S2
 Framework group  CS[SG(H2S2),X(H2)]
 Deg. of freedom     8
 Full point group                 CS      NOp   2
 Largest Abelian subgroup         CS      NOp   2
 Largest concise Abelian subgroup CS      NOp   2
                         Standard orientation:                         
 ---------------------------------------------------------------------
 Center     Atomic      Atomic             Coordinates (Angstroms)
 Number     Number       Type             X           Y           Z
 ---------------------------------------------------------------------
      1          1           0        1.238133    1.700717    0.000000
      2         16           0        0.004985    1.681469    0.000000
      3          1           0       -0.060331    0.437376    0.000000
      4         16           0        0.004985   -1.605706    0.000000
      5          1           0       -0.668658   -1.675149    1.026803
      6          1           0       -0.668658   -1.675149   -1.026803
 ---------------------------------------------------------------------
 Rotational constants (GHZ):    113.0596333      2.7495640      2.7462811
 Standard basis: STO-3G (5D, 7F)
 There are    17 symmetry adapted basis functions of A'  symmetry.
 There are     5 symmetry adapted basis functions of A"  symmetry.
 Integral buffers will be    131072 words long.
 Raffenetti 1 integral format.
 Two-electron integral symmetry is turned on.
    22 basis functions,    66 primitive gaussians,    22 cartesian basis functions
    18 alpha electrons       18 beta electrons
       nuclear repulsion energy        81.1688814044 Hartrees.



 Warning!  S  atom    2 may be hypervalent but has no d functions.
 Warning!  S  atom    4 may be hypervalent but has no d functions.



 NAtoms=    6 NActive=    6 NUniq=    5 SFac= 1.44D+00 NAtFMM=   60 NAOKFM=F Big=F
 One-electron integrals computed using PRISM.
 NBasis=    22 RedAO= T  NBF=    17     5
 NBsUse=    22 1.00D-06 NBFU=    17     5
 Initial guess read from the read-write file.
 B after Tr=     0.000000    0.000000    0.000000
         Rot=    1.000000    0.000000    0.000000    0.000000 Ang=   0.00 deg.
 Initial guess orbital symmetries:
       Occupied  (A') (A') (A') (A') (A") (A') (A') (A') (A') (A")
                 (A') (A') (A") (A') (A') (A') (A') (A")
       Virtual   (A') (A') (A") (A')
 Harris functional with IExCor=  205 diagonalized for initial guess.
 ExpMin= 1.69D-01 ExpMax= 5.33D+02 ExpMxC= 5.33D+02 IAcc=1 IRadAn=         1 AccDes= 0.00D+00
 HarFok:  IExCor=  205 AccDes= 0.00D+00 IRadAn=         1 IDoV= 1
 ScaDFX=  1.000000  1.000000  1.000000  1.000000
 FoFCou: FMM=F IPFlag=           0 FMFlag=      100000 FMFlg1=           0
         NFxFlg=           0 DoJE=T BraDBF=F KetDBF=T FulRan=T
         Omega=  0.000000  0.000000  1.000000  0.000000  0.000000 ICntrl=     500 IOpCl=  0
         NMat0=    1 NMatS0=    1 NMatT0=    0 NMatD0=    1 NMtDS0=    0 NMtDT0=    0
         I1Cent=           4 NGrid=           0.
 Petite list used in FoFCou.
 Requested convergence on RMS density matrix=1.00D-08 within 128 cycles.
 Requested convergence on MAX density matrix=1.00D-06.
 Requested convergence on             energy=1.00D-06.
 No special actions if energy rises.
 Keep R1 ints in memory in canonical form, NReq=852083.
 SCF Done:  E(RHF) =  -788.566566409     A.U. after    9 cycles
             Convg  =    0.4146D-08             -V/T =  2.0113
 Calling FoFJK, ICntrl=      2127 FMM=F ISym2X=1 I1Cent= 0 IOpClX= 0 NMat=1 NMatS=1 NMatT=0.
 ***** Axes restored to original set *****
 -------------------------------------------------------------------
 Center     Atomic                   Forces (Hartrees/Bohr)
 Number     Number              X              Y              Z
 -------------------------------------------------------------------
      1        1          -0.005093997    0.000000000   -0.086681382
      2       16          -0.086658262    0.000000000    0.089872306
      3        1           0.064611651    0.000000000   -0.002128753
      4       16          -0.001439916    0.000000000   -0.167603389
      5        1           0.014290263    0.054188947    0.083270609
      6        1           0.014290263   -0.054188947    0.083270609
 -------------------------------------------------------------------
 Cartesian Forces:  Max     0.167603389 RMS     0.064785011

 GradGradGradGradGradGradGradGradGradGradGradGradGradGradGradGradGradGrad
 Berny optimization.
 Using GEDIIS/GDIIS optimizer.
 Internal  Forces:  Max     0.091793428 RMS     0.053134273
 Search for a local minimum.
 Step number   3 out of a maximum of   24
 All quantities printed in internal units (Hartrees-Bohrs-Radians)
 Mixed Optimization -- RFO/linear search
 Update second derivatives using D2CorX and points    2    3
 The second derivative matrix:
                          R1        R2        R3        R4        R5
           R1           0.91538
           R2          -0.01987   0.90955
           R3           0.00897   0.00935   0.05773
           R4          -0.01854  -0.02138   0.00875   0.91249
           R5          -0.01854  -0.02138   0.00875  -0.01996   0.91249
           A1           0.00943   0.00983   0.00065   0.00920   0.00920
           A2          -0.00075  -0.00079  -0.00003  -0.00073  -0.00073
           A3          -0.00039  -0.00041  -0.00001  -0.00039  -0.00039
           A4           0.00282   0.00304  -0.00030   0.00284   0.00284
           A5          -0.00030  -0.00031  -0.00002  -0.00029  -0.00029
           A6           0.00000   0.00000   0.00000   0.00000   0.00000
           D1           0.00364   0.00381   0.00020   0.00356   0.00356
           D2          -0.00364  -0.00381  -0.00020  -0.00356  -0.00356
           D3          -0.00047  -0.00049  -0.00003  -0.00046  -0.00046
                          A1        A2        A3        A4        A5
           A1           0.16069
           A2          -0.00003   0.16000
           A3          -0.00001   0.00000   0.16000
           A4          -0.00031   0.00003   0.00002   0.15980
           A5          -0.00002   0.00000   0.00000   0.00001   0.00230
           A6           0.00000   0.00000   0.00000   0.00000   0.00000
           D1           0.00022  -0.00001   0.00000  -0.00013  -0.00001
           D2          -0.00022   0.00001   0.00000   0.00013   0.00001
           D3          -0.00003   0.00000   0.00000   0.00002   0.00000
                          A6        D1        D2        D3
           A6           0.00230
           D1           0.00000   0.00237
           D2           0.00000  -0.00007   0.00237
           D3           0.00000  -0.00001   0.00001   0.04998
 ITU=  0  1  0
 Use linear search instead of GDIIS.
     Eigenvalues ---    0.00230   0.00230   0.00230   0.05732   0.09450
     Eigenvalues ---    0.10936   0.15999   0.16018   0.85335   0.93245
     Eigenvalues ---    0.93245   0.93258
 RFO step:  Lambda=-6.74653812D-02 EMin= 2.29998944D-03
 Quartic linear search produced a step of  0.77803.
 Maximum step size (   0.505) exceeded in Quadratic search.
    -- Step size scaled by   0.922
 Iteration  1 RMS(Cart)=  0.18321640 RMS(Int)=  0.08494809
 Iteration  2 RMS(Cart)=  0.09906122 RMS(Int)=  0.01176829
 Iteration  3 RMS(Cart)=  0.01559052 RMS(Int)=  0.00051608
 Iteration  4 RMS(Cart)=  0.00010602 RMS(Int)=  0.00049696
 Iteration  5 RMS(Cart)=  0.00000015 RMS(Int)=  0.00049696
 ClnCor:  largest displacement from symmetrization is 3.58D-03 for atom     6.
 Variable       Old X    -DE/DX   Delta X   Delta X   Delta X     New X
                                 (Linear)    (Quad)   (Total)
    R1        2.33060   0.08682   0.22867  -0.01592   0.21275   2.54335
    R2        2.35423   0.09179   0.24093  -0.01492   0.22602   2.58025
    R3        3.86284   0.02711   0.04325   0.25603   0.29928   4.16212
    R4        2.32439   0.09175   0.22546  -0.00859   0.21646   2.54085
    R5        2.32439   0.09175   0.22546  -0.00859   0.21646   2.54085
    A1        1.63886  -0.00301   0.01720  -0.02907  -0.01187   1.62699
    A2        1.60973   0.00401   0.00210   0.01582   0.01796   1.62769
    A3        1.60973   0.00323   0.00210   0.01607   0.01796   1.62769
    A4        1.97550  -0.06311  -0.06058  -0.42822  -0.48842   1.48708
    A5        3.05718   0.00220   0.00148   0.05236   0.05384   3.11102
    A6        3.14159   0.00000   0.00000   0.00000   0.00000   3.14159
    D1        2.15142   0.03135   0.03013   0.21438   0.24466   2.39608
    D2       -2.15142  -0.03135  -0.03013  -0.21438  -0.24466  -2.39608
    D3        1.62990   0.00119  -0.00067  -0.00323  -0.00670   1.62320
         Item               Value     Threshold  Converged?
 Maximum Force            0.091793     0.000450     NO 
 RMS     Force            0.053134     0.000300     NO 
 Maximum Displacement     0.483328     0.001800     NO 
 RMS     Displacement     0.269621     0.001200     NO 
 Predicted change in Energy=-2.798560D-02
 GradGradGradGradGradGradGradGradGradGradGradGradGradGradGradGradGradGrad

                          Input orientation:                          
 ---------------------------------------------------------------------
 Center     Atomic      Atomic             Coordinates (Angstroms)
 Number     Number       Type             X           Y           Z
 ---------------------------------------------------------------------
      1          1           0       -0.530668    0.000000   -0.271453
      2         16           0       -0.348187    0.000000    1.062001
      3          1           0        1.012876    0.000000    0.953140
      4         16           0        3.201969    0.000000    0.710506
      5          1           0        3.386663    0.910130    1.682822
      6          1           0        3.386663   -0.910130    1.682822
 ---------------------------------------------------------------------
                    Distance matrix (angstroms):
                    1          2          3          4          5
     1  H    0.000000
     2  S    1.345882   0.000000
     3  H    1.970318   1.365409   0.000000
     4  S    3.859640   3.567514   2.202498   0.000000
     5  H    4.471354   3.893952   2.644927   1.344562   0.000000
     6  H    4.471354   3.893952   2.644927   1.344562   1.820261
                    6
     6  H    0.000000
 Stoichiometry    H4S2
 Framework group  CS[SG(H2S2),X(H2)]
 Deg. of freedom     8
 Full point group                 CS      NOp   2
 Largest Abelian subgroup         CS      NOp   2
 Largest concise Abelian subgroup CS      NOp   2
                         Standard orientation:                         
 ---------------------------------------------------------------------
 Center     Atomic      Atomic             Coordinates (Angstroms)
 Number     Number       Type             X           Y           Z
 ---------------------------------------------------------------------
      1          1           0        1.363067    1.875384    0.000000
      2         16           0        0.018122    1.825172    0.000000
      3          1           0       -0.007647    0.460006    0.000000
      4         16           0        0.018122   -1.742342    0.000000
      5          1           0       -0.967660   -1.830338    0.910130
      6          1           0       -0.967660   -1.830338   -0.910130
 ---------------------------------------------------------------------
 Rotational constants (GHZ):     96.0017649      2.3407721      2.3200861
 Standard basis: STO-3G (5D, 7F)
 There are    17 symmetry adapted basis functions of A'  symmetry.
 There are     5 symmetry adapted basis functions of A"  symmetry.
 Integral buffers will be    131072 words long.
 Raffenetti 1 integral format.
 Two-electron integral symmetry is turned on.
    22 basis functions,    66 primitive gaussians,    22 cartesian basis functions
    18 alpha electrons       18 beta electrons
       nuclear repulsion energy        74.6418328173 Hartrees.
 NAtoms=    6 NActive=    6 NUniq=    5 SFac= 1.44D+00 NAtFMM=   60 NAOKFM=F Big=F
 One-electron integrals computed using PRISM.
 NBasis=    22 RedAO= T  NBF=    17     5
 NBsUse=    22 1.00D-06 NBFU=    17     5
 Initial guess read from the read-write file.
 B after Tr=     0.000000    0.000000    0.000000
         Rot=    1.000000    0.000000    0.000000    0.000000 Ang=   0.00 deg.
 Initial guess orbital symmetries:
       Occupied  (A') (A') (A') (A') (A") (A') (A') (A') (A') (A")
                 (A') (A') (A") (A') (A') (A') (A') (A")
       Virtual   (A') (A') (A") (A')
 Harris functional with IExCor=  205 diagonalized for initial guess.
 ExpMin= 1.69D-01 ExpMax= 5.33D+02 ExpMxC= 5.33D+02 IAcc=1 IRadAn=         1 AccDes= 0.00D+00
 HarFok:  IExCor=  205 AccDes= 0.00D+00 IRadAn=         1 IDoV= 1
 ScaDFX=  1.000000  1.000000  1.000000  1.000000
 FoFCou: FMM=F IPFlag=           0 FMFlag=      100000 FMFlg1=           0
         NFxFlg=           0 DoJE=T BraDBF=F KetDBF=T FulRan=T
         Omega=  0.000000  0.000000  1.000000  0.000000  0.000000 ICntrl=     500 IOpCl=  0
         NMat0=    1 NMatS0=    1 NMatT0=    0 NMatD0=    1 NMtDS0=    0 NMtDT0=    0
         I1Cent=           4 NGrid=           0.
 Petite list used in FoFCou.
 Requested convergence on RMS density matrix=1.00D-08 within 128 cycles.
 Requested convergence on MAX density matrix=1.00D-06.
 Requested convergence on             energy=1.00D-06.
 No special actions if energy rises.
 Keep R1 ints in memory in canonical form, NReq=852083.
 SCF Done:  E(RHF) =  -788.616746527     A.U. after   10 cycles
             Convg  =    0.9383D-09             -V/T =  2.0118
 Calling FoFJK, ICntrl=      2127 FMM=F ISym2X=1 I1Cent= 0 IOpClX= 0 NMat=1 NMatS=1 NMatT=0.
 ***** Axes restored to original set *****
 -------------------------------------------------------------------
 Center     Atomic                   Forces (Hartrees/Bohr)
 Number     Number              X              Y              Z
 -------------------------------------------------------------------
      1        1           0.002794534    0.000000000    0.013047580
      2       16           0.014834225    0.000000000   -0.013143272
      3        1          -0.028446100    0.000000000    0.000920234
      4       16           0.017204044    0.000000000    0.034835105
      5        1          -0.003193351    0.004845552   -0.017829824
      6        1          -0.003193351   -0.004845552   -0.017829824
 -------------------------------------------------------------------
 Cartesian Forces:  Max     0.034835105 RMS     0.014129360

 GradGradGradGradGradGradGradGradGradGradGradGradGradGradGradGradGradGrad
 Berny optimization.
 Using GEDIIS/GDIIS optimizer.
 Internal  Forces:  Max     0.026784784 RMS     0.011620926
 Search for a local minimum.
 Step number   4 out of a maximum of   24
 All quantities printed in internal units (Hartrees-Bohrs-Radians)
 Mixed Optimization -- RFO/linear search
 Update second derivatives using D2CorX and points    3    4
 DE= -5.02D-02 DEPred=-2.80D-02 R= 1.79D+00
 SS=  1.41D+00  RLast= 8.01D-01 DXNew= 8.4853D-01 2.4030D+00
 Trust test= 1.79D+00 RLast= 8.01D-01 DXMaxT set to 8.49D-01
 The second derivative matrix:
                          R1        R2        R3        R4        R5
           R1           0.81516
           R2          -0.12306   0.80345
           R3          -0.00313  -0.00301   0.05633
           R4          -0.11954  -0.12535  -0.00343   0.81071
           R5          -0.11954  -0.12535  -0.00343  -0.12174   0.81071
           A1           0.00322   0.00327  -0.00021   0.00291   0.00291
           A2           0.00000   0.00010   0.00015   0.00003   0.00003
           A3          -0.00005   0.00005   0.00011  -0.00002  -0.00002
           A4           0.01331   0.01193  -0.00030   0.01314   0.01314
           A5           0.00039   0.00044   0.00009   0.00041   0.00041
           A6           0.00000   0.00000   0.00000   0.00000   0.00000
           D1           0.02805   0.03060   0.00426   0.02840   0.02840
           D2          -0.02805  -0.03060  -0.00426  -0.02840  -0.02840
           D3           0.00060   0.00065   0.00013   0.00062   0.00062
                          A1        A2        A3        A4        A5
           A1           0.16047
           A2          -0.00011   0.16009
           A3          -0.00010   0.00008   0.16007
           A4           0.00237  -0.00158  -0.00137   0.18286
           A5          -0.00002   0.00003   0.00002  -0.00055   0.00231
           A6           0.00000   0.00000   0.00000   0.00000   0.00000
           D1          -0.00004   0.00115   0.00109  -0.02371   0.00025
           D2           0.00004  -0.00115  -0.00109   0.02371  -0.00025
           D3          -0.00001   0.00003   0.00003  -0.00061   0.00000
                          A6        D1        D2        D3
           A6           0.00230
           D1           0.00000   0.01472
           D2           0.00000  -0.01242   0.01472
           D3           0.00000   0.00018  -0.00018   0.04998
 ITU=  1  0  1  0
 Use linear search instead of GDIIS.
     Eigenvalues ---    0.00230   0.00230   0.00230   0.05606   0.10418
     Eigenvalues ---    0.15479   0.16016   0.16592   0.44525   0.93245
     Eigenvalues ---    0.93250   0.93251
 RFO step:  Lambda=-4.82779654D-03 EMin= 2.30000000D-03
 Quartic linear search produced a step of -0.18648.
 Iteration  1 RMS(Cart)=  0.09454487 RMS(Int)=  0.00646091
 Iteration  2 RMS(Cart)=  0.00494517 RMS(Int)=  0.00035959
 Iteration  3 RMS(Cart)=  0.00002933 RMS(Int)=  0.00035904
 Iteration  4 RMS(Cart)=  0.00000001 RMS(Int)=  0.00035904
 ClnCor:  largest displacement from symmetrization is 6.12D-03 for atom     6.
 Variable       Old X    -DE/DX   Delta X   Delta X   Delta X     New X
                                 (Linear)    (Quad)   (Total)
    R1        2.54335  -0.01331  -0.03967   0.01526  -0.02442   2.51893
    R2        2.58025  -0.01758  -0.04215   0.01319  -0.02896   2.55129
    R3        4.16212   0.01084  -0.05581   0.21646   0.16065   4.32277
    R4        2.54085  -0.01005  -0.04037   0.01931  -0.02036   2.52049
    R5        2.54085  -0.01005  -0.04037   0.01931  -0.02036   2.52049
    A1        1.62699  -0.00254   0.00221  -0.01774  -0.01553   1.61146
    A2        1.62769  -0.00028  -0.00335   0.00576   0.00210   1.62979
    A3        1.62769  -0.00088  -0.00335   0.00369   0.00210   1.62979
    A4        1.48708   0.02678   0.09108   0.08131   0.17176   1.65884
    A5        3.11102   0.00129  -0.01004   0.14964   0.13961   3.25063
    A6        3.14159   0.00000   0.00000   0.00000   0.00000   3.14159
    D1        2.39608  -0.01338  -0.04562  -0.03852  -0.08445   2.31162
    D2       -2.39608   0.01338   0.04562   0.03852   0.08445  -2.31162
    D3        1.62320   0.00055   0.00125   0.00753   0.01215   1.63535
         Item               Value     Threshold  Converged?
 Maximum Force            0.026785     0.000450     NO 
 RMS     Force            0.011621     0.000300     NO 
 Maximum Displacement     0.160594     0.001800     NO 
 RMS     Displacement     0.093139     0.001200     NO 
 Predicted change in Energy=-5.055275D-03
 GradGradGradGradGradGradGradGradGradGradGradGradGradGradGradGradGradGrad

                          Input orientation:                          
 ---------------------------------------------------------------------
 Center     Atomic      Atomic             Coordinates (Angstroms)
 Number     Number       Type             X           Y           Z
 ---------------------------------------------------------------------
      1          1           0       -0.593097    0.000000   -0.243057
      2         16           0       -0.343925    0.000000    1.066407
      3          1           0        0.991524    0.000000    0.868157
      4         16           0        3.277355    0.000000    0.780478
      5          1           0        3.390332    0.983719    1.674077
      6          1           0        3.390332   -0.983719    1.674077
 ---------------------------------------------------------------------
                    Distance matrix (angstroms):
                    1          2          3          4          5
     1  H    0.000000
     2  S    1.332961   0.000000
     3  H    1.935412   1.350085   0.000000
     4  S    4.003501   3.632551   2.287512   0.000000
     5  H    4.528887   3.909175   2.715049   1.333786   0.000000
     6  H    4.528887   3.909175   2.715049   1.333786   1.967437
                    6
     6  H    0.000000
 Stoichiometry    H4S2
 Framework group  CS[SG(H2S2),X(H2)]
 Deg. of freedom     8
 Full point group                 CS      NOp   2
 Largest Abelian subgroup         CS      NOp   2
 Largest concise Abelian subgroup CS      NOp   2
                         Standard orientation:                         
 ---------------------------------------------------------------------
 Center     Atomic      Atomic             Coordinates (Angstroms)
 Number     Number       Type             X           Y           Z
 ---------------------------------------------------------------------
      1          1           0        1.335623    1.997328    0.000000
      2         16           0        0.010608    1.852002    0.000000
      3          1           0        0.103127    0.505091    0.000000
      4         16           0        0.010608   -1.780549    0.000000
      5          1           0       -0.889111   -1.822838    0.983719
      6          1           0       -0.889111   -1.822838   -0.983719
 ---------------------------------------------------------------------
 Rotational constants (GHZ):     97.3376037      2.2551795      2.2422628
 Standard basis: STO-3G (5D, 7F)
 There are    17 symmetry adapted basis functions of A'  symmetry.
 There are     5 symmetry adapted basis functions of A"  symmetry.
 Integral buffers will be    131072 words long.
 Raffenetti 1 integral format.
 Two-electron integral symmetry is turned on.
    22 basis functions,    66 primitive gaussians,    22 cartesian basis functions
    18 alpha electrons       18 beta electrons
       nuclear repulsion energy        73.9262096789 Hartrees.
 NAtoms=    6 NActive=    6 NUniq=    5 SFac= 1.44D+00 NAtFMM=   60 NAOKFM=F Big=F
 One-electron integrals computed using PRISM.
 NBasis=    22 RedAO= T  NBF=    17     5
 NBsUse=    22 1.00D-06 NBFU=    17     5
 Initial guess read from the read-write file.
 B after Tr=     0.000000    0.000000    0.000000
         Rot=    1.000000    0.000000    0.000000    0.000000 Ang=   0.00 deg.
 Initial guess orbital symmetries:
       Occupied  (A') (A') (A') (A') (A") (A') (A') (A') (A') (A")
                 (A') (A') (A") (A') (A') (A') (A') (A")
       Virtual   (A") (A') (A') (A')
 Harris functional with IExCor=  205 diagonalized for initial guess.
 ExpMin= 1.69D-01 ExpMax= 5.33D+02 ExpMxC= 5.33D+02 IAcc=1 IRadAn=         1 AccDes= 0.00D+00
 HarFok:  IExCor=  205 AccDes= 0.00D+00 IRadAn=         1 IDoV= 1
 ScaDFX=  1.000000  1.000000  1.000000  1.000000
 FoFCou: FMM=F IPFlag=           0 FMFlag=      100000 FMFlg1=           0
         NFxFlg=           0 DoJE=T BraDBF=F KetDBF=T FulRan=T
         Omega=  0.000000  0.000000  1.000000  0.000000  0.000000 ICntrl=     500 IOpCl=  0
         NMat0=    1 NMatS0=    1 NMatT0=    0 NMatD0=    1 NMtDS0=    0 NMtDT0=    0
         I1Cent=           4 NGrid=           0.
 Petite list used in FoFCou.
 Requested convergence on RMS density matrix=1.00D-08 within 128 cycles.
 Requested convergence on MAX density matrix=1.00D-06.
 Requested convergence on             energy=1.00D-06.
 No special actions if energy rises.
 Keep R1 ints in memory in canonical form, NReq=852083.
 SCF Done:  E(RHF) =  -788.621381832     A.U. after    8 cycles
             Convg  =    0.9232D-08             -V/T =  2.0118
 Calling FoFJK, ICntrl=      2127 FMM=F ISym2X=1 I1Cent= 0 IOpClX= 0 NMat=1 NMatS=1 NMatT=0.
 ***** Axes restored to original set *****
 -------------------------------------------------------------------
 Center     Atomic                   Forces (Hartrees/Bohr)
 Number     Number              X              Y              Z
 -------------------------------------------------------------------
      1        1          -0.000305449    0.000000000    0.003976494
      2       16           0.009395559    0.000000000   -0.006927028
      3        1          -0.016585629    0.000000000    0.003395537
      4       16           0.006850380    0.000000000   -0.002119086
      5        1           0.000322570   -0.006182272    0.000837041
      6        1           0.000322570    0.006182272    0.000837041
 -------------------------------------------------------------------
 Cartesian Forces:  Max     0.016585629 RMS     0.005618656

 GradGradGradGradGradGradGradGradGradGradGradGradGradGradGradGradGradGrad
 Berny optimization.
 Using GEDIIS/GDIIS optimizer.
 Internal  Forces:  Max     0.009426713 RMS     0.004622830
 Search for a local minimum.
 Step number   5 out of a maximum of   24
 All quantities printed in internal units (Hartrees-Bohrs-Radians)
 Mixed Optimization -- RFO/linear search
 Update second derivatives using D2CorX and points    4    5
 DE= -4.64D-03 DEPred=-5.06D-03 R= 9.17D-01
 SS=  1.41D+00  RLast= 3.03D-01 DXNew= 1.4270D+00 9.0860D-01
 Trust test= 9.17D-01 RLast= 3.03D-01 DXMaxT set to 9.09D-01
 The second derivative matrix:
                          R1        R2        R3        R4        R5
           R1           0.80284
           R2          -0.14275   0.77468
           R3           0.00627   0.01051   0.05000
           R4          -0.12930  -0.14041   0.00371   0.80308
           R5          -0.12930  -0.14041   0.00371  -0.12937   0.80308
           A1           0.00435   0.00273   0.00023   0.00333   0.00333
           A2           0.00070   0.00064  -0.00006   0.00047   0.00047
           A3           0.00115   0.00105  -0.00029   0.00074   0.00074
           A4           0.03125   0.04880  -0.01856   0.02903   0.02903
           A5          -0.00184  -0.00138   0.00082  -0.00100  -0.00100
           A6           0.00000   0.00000   0.00000   0.00000   0.00000
           D1           0.03148   0.02829   0.00598   0.02953   0.02953
           D2          -0.03148  -0.02829  -0.00598  -0.02953  -0.02953
           D3           0.00083   0.00113  -0.00011   0.00083   0.00083
                          A1        A2        A3        A4        A5
           A1           0.16240
           A2           0.00033   0.16018
           A3           0.00059   0.00021   0.16027
           A4          -0.00640  -0.00435  -0.00591   0.18162
           A5          -0.00132  -0.00022  -0.00035   0.00799   0.00303
           A6           0.00000   0.00000   0.00000   0.00000   0.00000
           D1           0.00640   0.00262   0.00341  -0.05230  -0.00415
           D2          -0.00640  -0.00262  -0.00341   0.05230   0.00415
           D3          -0.00012  -0.00001  -0.00003  -0.00065   0.00011
                          A6        D1        D2        D3
           A6           0.00230
           D1           0.00000   0.03616
           D2           0.00000  -0.03386   0.03616
           D3           0.00000  -0.00017   0.00017   0.04998
 ITU=  1  1  0  1  0
 Use linear search instead of GDIIS.
     Eigenvalues ---    0.00230   0.00230   0.00245   0.04709   0.10398
     Eigenvalues ---    0.15911   0.16073   0.21983   0.39021   0.92930
     Eigenvalues ---    0.93245   0.93305
 RFO step:  Lambda=-2.11599581D-03 EMin= 2.30000000D-03
 Quartic linear search produced a step of -0.05753.
 Iteration  1 RMS(Cart)=  0.11317107 RMS(Int)=  0.02925874
 Iteration  2 RMS(Cart)=  0.06220424 RMS(Int)=  0.00255590
 Iteration  3 RMS(Cart)=  0.00305736 RMS(Int)=  0.00095510
 Iteration  4 RMS(Cart)=  0.00000070 RMS(Int)=  0.00095510
 ClnCor:  largest displacement from symmetrization is 1.25D-04 for atom     6.
 Variable       Old X    -DE/DX   Delta X   Delta X   Delta X     New X
                                 (Linear)    (Quad)   (Total)
    R1        2.51893  -0.00385   0.00140  -0.01646  -0.01505   2.50388
    R2        2.55129  -0.00943   0.00167  -0.02380  -0.02213   2.52916
    R3        4.32277   0.00751  -0.00924   0.15846   0.14923   4.47200
    R4        2.52049  -0.00397   0.00117  -0.01562  -0.01447   2.50602
    R5        2.52049  -0.00397   0.00117  -0.01562  -0.01447   2.50602
    A1        1.61146   0.00263   0.00089   0.01291   0.01381   1.62527
    A2        1.62979   0.00067  -0.00012   0.00305   0.00272   1.63251
    A3        1.62979   0.00057  -0.00012   0.00288   0.00272   1.63251
    A4        1.65884  -0.00809  -0.00988  -0.00478  -0.01671   1.64213
    A5        3.25063  -0.00148  -0.00803  -0.29197  -0.29988   2.95075
    A6        3.14159   0.00000   0.00000   0.00000   0.00000   3.14159
    D1        2.31162   0.00402   0.00486  -0.00027   0.00253   2.31416
    D2       -2.31162  -0.00402  -0.00486   0.00027  -0.00253  -2.31416
    D3        1.63535   0.00011  -0.00070   0.00287   0.00186   1.63721
         Item               Value     Threshold  Converged?
 Maximum Force            0.009427     0.000450     NO 
 RMS     Force            0.004623     0.000300     NO 
 Maximum Displacement     0.411563     0.001800     NO 
 RMS     Displacement     0.164098     0.001200     NO 
 Predicted change in Energy=-1.169463D-03
 GradGradGradGradGradGradGradGradGradGradGradGradGradGradGradGradGradGrad

                          Input orientation:                          
 ---------------------------------------------------------------------
 Center     Atomic      Atomic             Coordinates (Angstroms)
 Number     Number       Type             X           Y           Z
 ---------------------------------------------------------------------
      1          1           0       -0.451111    0.000000   -0.306109
      2         16           0       -0.445370    0.000000    1.018873
      3          1           0        0.891319    0.000000    1.085947
      4         16           0        3.234411    0.000000    0.754070
      5          1           0        3.441603    0.970558    1.633678
      6          1           0        3.441603   -0.970558    1.633678
 ---------------------------------------------------------------------
                    Distance matrix (angstroms):
                    1          2          3          4          5
     1  H    0.000000
     2  S    1.324994   0.000000
     3  H    1.933891   1.338371   0.000000
     4  S    3.834977   3.689297   2.366479   0.000000
     5  H    4.456229   4.053212   2.783153   1.326131   0.000000
     6  H    4.456229   4.053212   2.783153   1.326131   1.941117
                    6
     6  H    0.000000
 Stoichiometry    H4S2
 Framework group  CS[SG(H2S2),X(H2)]
 Deg. of freedom     8
 Full point group                 CS      NOp   2
 Largest Abelian subgroup         CS      NOp   2
 Largest concise Abelian subgroup CS      NOp   2
                         Standard orientation:                         
 ---------------------------------------------------------------------
 Center     Atomic      Atomic             Coordinates (Angstroms)
 Number     Number       Type             X           Y           Z
 ---------------------------------------------------------------------
      1          1           0        1.339346    1.802629    0.000000
      2         16           0        0.017369    1.892005    0.000000
      3          1           0       -0.145474    0.563578    0.000000
      4         16           0        0.017369   -1.797292    0.000000
      5          1           0       -0.874842   -1.940814    0.970558
      6          1           0       -0.874842   -1.940814   -0.970558
 ---------------------------------------------------------------------
 Rotational constants (GHZ):     98.4059657      2.1884439      2.1758350
 Standard basis: STO-3G (5D, 7F)
 There are    17 symmetry adapted basis functions of A'  symmetry.
 There are     5 symmetry adapted basis functions of A"  symmetry.
 Integral buffers will be    131072 words long.
 Raffenetti 1 integral format.
 Two-electron integral symmetry is turned on.
    22 basis functions,    66 primitive gaussians,    22 cartesian basis functions
    18 alpha electrons       18 beta electrons
       nuclear repulsion energy        73.3325791139 Hartrees.
 NAtoms=    6 NActive=    6 NUniq=    5 SFac= 1.44D+00 NAtFMM=   60 NAOKFM=F Big=F
 One-electron integrals computed using PRISM.
 NBasis=    22 RedAO= T  NBF=    17     5
 NBsUse=    22 1.00D-06 NBFU=    17     5
 Initial guess read from the read-write file.
 B after Tr=     0.000000    0.000000    0.000000
         Rot=    1.000000    0.000000    0.000000    0.000000 Ang=   0.00 deg.
 Initial guess orbital symmetries:
       Occupied  (A') (A') (A') (A') (A") (A') (A') (A') (A') (A")
                 (A') (A') (A") (A') (A') (A') (A') (A")
       Virtual   (A") (A') (A') (A')
 Harris functional with IExCor=  205 diagonalized for initial guess.
 ExpMin= 1.69D-01 ExpMax= 5.33D+02 ExpMxC= 5.33D+02 IAcc=1 IRadAn=         1 AccDes= 0.00D+00
 HarFok:  IExCor=  205 AccDes= 0.00D+00 IRadAn=         1 IDoV= 1
 ScaDFX=  1.000000  1.000000  1.000000  1.000000
 FoFCou: FMM=F IPFlag=           0 FMFlag=      100000 FMFlg1=           0
         NFxFlg=           0 DoJE=T BraDBF=F KetDBF=T FulRan=T
         Omega=  0.000000  0.000000  1.000000  0.000000  0.000000 ICntrl=     500 IOpCl=  0
         NMat0=    1 NMatS0=    1 NMatT0=    0 NMatD0=    1 NMtDS0=    0 NMtDT0=    0
         I1Cent=           4 NGrid=           0.
 Petite list used in FoFCou.
 Requested convergence on RMS density matrix=1.00D-08 within 128 cycles.
 Requested convergence on MAX density matrix=1.00D-06.
 Requested convergence on             energy=1.00D-06.
 No special actions if energy rises.
 Keep R1 ints in memory in canonical form, NReq=852083.
 SCF Done:  E(RHF) =  -788.622518400     A.U. after    9 cycles
             Convg  =    0.7787D-08             -V/T =  2.0118
 Calling FoFJK, ICntrl=      2127 FMM=F ISym2X=1 I1Cent= 0 IOpClX= 0 NMat=1 NMatS=1 NMatT=0.
 ***** Axes restored to original set *****
 -------------------------------------------------------------------
 Center     Atomic                   Forces (Hartrees/Bohr)
 Number     Number              X              Y              Z
 -------------------------------------------------------------------
      1        1           0.001018150    0.000000000   -0.002044802
      2       16           0.001869370    0.000000000    0.004064670
      3        1          -0.008464632    0.000000000   -0.001949526
      4       16           0.003443657    0.000000000   -0.006518476
      5        1           0.001066727   -0.000646567    0.003224067
      6        1           0.001066727    0.000646567    0.003224067
 -------------------------------------------------------------------
 Cartesian Forces:  Max     0.008464632 RMS     0.003152909

 GradGradGradGradGradGradGradGradGradGradGradGradGradGradGradGradGradGrad
 Berny optimization.
 Using GEDIIS/GDIIS optimizer.
 Internal  Forces:  Max     0.005528041 RMS     0.002643263
 Search for a local minimum.
 Step number   6 out of a maximum of   24
 All quantities printed in internal units (Hartrees-Bohrs-Radians)
 Mixed Optimization -- RFO/linear search
 Update second derivatives using D2CorX and points    4    5    6
 DE= -1.14D-03 DEPred=-1.17D-03 R= 9.72D-01
 SS=  1.41D+00  RLast= 3.37D-01 DXNew= 1.5281D+00 1.0122D+00
 Trust test= 9.72D-01 RLast= 3.37D-01 DXMaxT set to 1.01D+00
 The second derivative matrix:
                          R1        R2        R3        R4        R5
           R1           0.81723
           R2          -0.14334   0.74479
           R3           0.01911   0.04379   0.02323
           R4          -0.11627  -0.14125   0.01569   0.81488
           R5          -0.11627  -0.14125   0.01569  -0.11757   0.81488
           A1          -0.00880  -0.00542  -0.00167  -0.00866  -0.00866
           A2           0.00395   0.00491  -0.00214   0.00346   0.00346
           A3           0.00342   0.00417  -0.00192   0.00282   0.00282
           A4           0.00512   0.00818   0.00524   0.00489   0.00489
           A5           0.00985   0.00896  -0.00099   0.00969   0.00969
           A6           0.00000   0.00000   0.00000   0.00000   0.00000
           D1           0.03189   0.02496   0.01011   0.02989   0.02989
           D2          -0.03189  -0.02496  -0.01011  -0.02989  -0.02989
           D3           0.00193   0.00236  -0.00058   0.00183   0.00183
                          A1        A2        A3        A4        A5
           A1           0.17184
           A2          -0.00136   0.16026
           A3          -0.00055   0.00025   0.16028
           A4           0.00552  -0.00412  -0.00552   0.17051
           A5          -0.00882   0.00083   0.00032   0.00176   0.00858
           A6           0.00000   0.00000   0.00000   0.00000   0.00000
           D1           0.00497   0.00320   0.00383  -0.05745  -0.00256
           D2          -0.00497  -0.00320  -0.00383   0.05745   0.00256
           D3          -0.00074   0.00005   0.00000  -0.00086   0.00053
                          A6        D1        D2        D3
           A6           0.00230
           D1           0.00000   0.03568
           D2           0.00000  -0.03338   0.03568
           D3           0.00000   0.00001  -0.00001   0.05001
 ITU=  1  1  1  0  1  0
 Use linear search instead of GDIIS.
     Eigenvalues ---    0.00230   0.00230   0.00589   0.01731   0.10392
     Eigenvalues ---    0.15851   0.17137   0.20830   0.41982   0.92249
     Eigenvalues ---    0.93245   0.93286
 RFO step:  Lambda=-2.57755601D-03 EMin= 2.30000000D-03
 Quartic linear search produced a step of  0.18315.
 Iteration  1 RMS(Cart)=  0.13302344 RMS(Int)=  0.04345546
 Iteration  2 RMS(Cart)=  0.06544080 RMS(Int)=  0.00190719
 Iteration  3 RMS(Cart)=  0.00183578 RMS(Int)=  0.00090836
 Iteration  4 RMS(Cart)=  0.00000137 RMS(Int)=  0.00090836
 Iteration  5 RMS(Cart)=  0.00000000 RMS(Int)=  0.00090836
 ClnCor:  largest displacement from symmetrization is 2.68D-03 for atom     6.
 Variable       Old X    -DE/DX   Delta X   Delta X   Delta X     New X
                                 (Linear)    (Quad)   (Total)
    R1        2.50388   0.00204  -0.00276  -0.02162  -0.02438   2.47950
    R2        2.52916  -0.00298  -0.00405  -0.03803  -0.04208   2.48707
    R3        4.47200   0.00553   0.02733   0.31327   0.34060   4.81260
    R4        2.50602   0.00183  -0.00265  -0.02056  -0.02290   2.48313
    R5        2.50602   0.00183  -0.00265  -0.02056  -0.02290   2.48313
    A1        1.62527  -0.00257   0.00253  -0.00455  -0.00202   1.62325
    A2        1.63251   0.00101   0.00050   0.01021   0.01052   1.64303
    A3        1.63251   0.00064   0.00050   0.00873   0.01052   1.64303
    A4        1.64213  -0.00485  -0.00306  -0.02073  -0.02582   1.61631
    A5        2.95075   0.00203  -0.05492   0.34052   0.28565   3.23640
    A6        3.14159   0.00000   0.00000   0.00000   0.00000   3.14159
    D1        2.31416   0.00241   0.00046   0.01945   0.01797   2.33213
    D2       -2.31416  -0.00241  -0.00046  -0.01945  -0.01797  -2.33213
    D3        1.63721   0.00039   0.00034   0.00816   0.00939   1.64660
         Item               Value     Threshold  Converged?
 Maximum Force            0.005528     0.000450     NO 
 RMS     Force            0.002643     0.000300     NO 
 Maximum Displacement     0.447532     0.001800     NO 
 RMS     Displacement     0.197857     0.001200     NO 
 Predicted change in Energy=-1.623944D-03
 GradGradGradGradGradGradGradGradGradGradGradGradGradGradGradGradGradGrad

                          Input orientation:                          
 ---------------------------------------------------------------------
 Center     Atomic      Atomic             Coordinates (Angstroms)
 Number     Number       Type             X           Y           Z
 ---------------------------------------------------------------------
      1          1           0       -0.687934    0.000000   -0.264855
      2         16           0       -0.459941    0.000000    1.027278
      3          1           0        0.846347    0.000000    0.866850
      4         16           0        3.392110    0.000000    0.797091
      5          1           0        3.511640    0.950052    1.696950
      6          1           0        3.511640   -0.950052    1.696950
 ---------------------------------------------------------------------
                    Distance matrix (angstroms):
                    1          2          3          4          5
     1  H    0.000000
     2  S    1.312094   0.000000
     3  H    1.906509   1.316101   0.000000
     4  S    4.215981   3.858922   2.546719   0.000000
     5  H    4.731564   4.138177   2.948805   1.314014   0.000000
     6  H    4.731564   4.138177   2.948805   1.314014   1.900103
                    6
     6  H    0.000000
 Stoichiometry    H4S2
 Framework group  CS[SG(H2S2),X(H2)]
 Deg. of freedom     8
 Full point group                 CS      NOp   2
 Largest Abelian subgroup         CS      NOp   2
 Largest concise Abelian subgroup CS      NOp   2
                         Standard orientation:                         
 ---------------------------------------------------------------------
 Center     Atomic      Atomic             Coordinates (Angstroms)
 Number     Number       Type             X           Y           Z
 ---------------------------------------------------------------------
      1          1           0        1.315241    2.115925    0.000000
      2         16           0        0.011809    1.965414    0.000000
      3          1           0        0.094030    0.651883    0.000000
      4         16           0        0.011809   -1.893508    0.000000
      5          1           0       -0.893578   -1.959148    0.950052
      6          1           0       -0.893578   -1.959148   -0.950052
 ---------------------------------------------------------------------
 Rotational constants (GHZ):    100.6394620      1.9992940      1.9884148
 Standard basis: STO-3G (5D, 7F)
 There are    17 symmetry adapted basis functions of A'  symmetry.
 There are     5 symmetry adapted basis functions of A"  symmetry.
 Integral buffers will be    131072 words long.
 Raffenetti 1 integral format.
 Two-electron integral symmetry is turned on.
    22 basis functions,    66 primitive gaussians,    22 cartesian basis functions
    18 alpha electrons       18 beta electrons
       nuclear repulsion energy        71.4422522312 Hartrees.
 NAtoms=    6 NActive=    6 NUniq=    5 SFac= 1.44D+00 NAtFMM=   60 NAOKFM=F Big=F
 One-electron integrals computed using PRISM.
 NBasis=    22 RedAO= T  NBF=    17     5
 NBsUse=    22 1.00D-06 NBFU=    17     5
 Initial guess read from the read-write file.
 B after Tr=     0.000000    0.000000    0.000000
         Rot=    1.000000    0.000000    0.000000    0.000000 Ang=   0.00 deg.
 Initial guess orbital symmetries:
       Occupied  (A') (A') (A') (A') (A") (A') (A') (A') (A') (A")
                 (A') (A') (A") (A') (A') (A') (A') (A")
       Virtual   (A") (A') (A') (A')
 Harris functional with IExCor=  205 diagonalized for initial guess.
 ExpMin= 1.69D-01 ExpMax= 5.33D+02 ExpMxC= 5.33D+02 IAcc=1 IRadAn=         1 AccDes= 0.00D+00
 HarFok:  IExCor=  205 AccDes= 0.00D+00 IRadAn=         1 IDoV= 1
 ScaDFX=  1.000000  1.000000  1.000000  1.000000
 FoFCou: FMM=F IPFlag=           0 FMFlag=      100000 FMFlg1=           0
         NFxFlg=           0 DoJE=T BraDBF=F KetDBF=T FulRan=T
         Omega=  0.000000  0.000000  1.000000  0.000000  0.000000 ICntrl=     500 IOpCl=  0
         NMat0=    1 NMatS0=    1 NMatT0=    0 NMatD0=    1 NMtDS0=    0 NMtDT0=    0
         I1Cent=           4 NGrid=           0.
 Petite list used in FoFCou.
 Requested convergence on RMS density matrix=1.00D-08 within 128 cycles.
 Requested convergence on MAX density matrix=1.00D-06.
 Requested convergence on             energy=1.00D-06.
 No special actions if energy rises.
 Keep R1 ints in memory in canonical form, NReq=852083.
 SCF Done:  E(RHF) =  -788.623270029     A.U. after    9 cycles
             Convg  =    0.9162D-08             -V/T =  2.0118
 Calling FoFJK, ICntrl=      2127 FMM=F ISym2X=1 I1Cent= 0 IOpClX= 0 NMat=1 NMatS=1 NMatT=0.
 ***** Axes restored to original set *****
 -------------------------------------------------------------------
 Center     Atomic                   Forces (Hartrees/Bohr)
 Number     Number              X              Y              Z
 -------------------------------------------------------------------
      1        1          -0.001730855    0.000000000   -0.012243300
      2       16          -0.009843949    0.000000000    0.013851261
      3        1           0.009711601    0.000000000   -0.001557993
      4       16          -0.000515555    0.000000000   -0.015329963
      5        1           0.001189379    0.008385188    0.007639998
      6        1           0.001189379   -0.008385188    0.007639998
 -------------------------------------------------------------------
 Cartesian Forces:  Max     0.015329963 RMS     0.007578706

 GradGradGradGradGradGradGradGradGradGradGradGradGradGradGradGradGradGrad
 Berny optimization.
 Using GEDIIS/GDIIS optimizer.
 Internal  Forces:  Max     0.012357808 RMS     0.006294247
 Search for a local minimum.
 Step number   7 out of a maximum of   24
 All quantities printed in internal units (Hartrees-Bohrs-Radians)
 Mixed Optimization -- RFO/linear search
 Update second derivatives using D2CorX and points    5    6    7
 DE= -7.52D-04 DEPred=-1.62D-03 R= 4.63D-01
 Trust test= 4.63D-01 RLast= 4.50D-01 DXMaxT set to 1.01D+00
 The second derivative matrix:
                          R1        R2        R3        R4        R5
           R1           0.87324
           R2          -0.07638   0.81756
           R3           0.00859   0.03946   0.01585
           R4          -0.06342  -0.07800   0.00568   0.86475
           R5          -0.06342  -0.07800   0.00568  -0.06770   0.86475
           A1          -0.01456  -0.01182  -0.00116  -0.01409  -0.01409
           A2           0.00353   0.00550  -0.00330   0.00305   0.00305
           A3           0.00332   0.00548  -0.00351   0.00272   0.00272
           A4           0.02367   0.02107   0.01230   0.02249   0.02249
           A5           0.00566   0.00213   0.00188   0.00575   0.00575
           A6           0.00000   0.00000   0.00000   0.00000   0.00000
           D1           0.02228   0.01782   0.00699   0.02078   0.02078
           D2          -0.02228  -0.01782  -0.00699  -0.02078  -0.02078
           D3           0.00204   0.00257  -0.00069   0.00194   0.00194
                          A1        A2        A3        A4        A5
           A1           0.17233
           A2          -0.00139   0.16010
           A3          -0.00063   0.00004   0.16000
           A4           0.00426  -0.00286  -0.00373   0.16476
           A5          -0.00821   0.00113   0.00069  -0.00199   0.00838
           A6           0.00000   0.00000   0.00000   0.00000   0.00000
           D1           0.00566   0.00262   0.00299  -0.05507  -0.00074
           D2          -0.00566  -0.00262  -0.00299   0.05507   0.00074
           D3          -0.00075   0.00004  -0.00001  -0.00072   0.00054
                          A6        D1        D2        D3
           A6           0.00230
           D1           0.00000   0.03473
           D2           0.00000  -0.03243   0.03473
           D3           0.00000  -0.00006   0.00006   0.05001
 ITU=  0  1  1  1  0  1  0
 Use linear search instead of GDIIS.
     Eigenvalues ---    0.00230   0.00230   0.00724   0.01363   0.10423
     Eigenvalues ---    0.15927   0.17126   0.20688   0.64130   0.91800
     Eigenvalues ---    0.93245   0.93294
 RFO step:  Lambda=-7.69126762D-04 EMin= 2.30000000D-03
 Quartic linear search produced a step of -0.29894.
 Iteration  1 RMS(Cart)=  0.09103661 RMS(Int)=  0.00580244
 Iteration  2 RMS(Cart)=  0.00883855 RMS(Int)=  0.00008783
 Iteration  3 RMS(Cart)=  0.00002443 RMS(Int)=  0.00008586
 Iteration  4 RMS(Cart)=  0.00000000 RMS(Int)=  0.00008586
 ClnCor:  largest displacement from symmetrization is 2.72D-03 for atom     6.
 Variable       Old X    -DE/DX   Delta X   Delta X   Delta X     New X
                                 (Linear)    (Quad)   (Total)
    R1        2.47950   0.01236   0.00729   0.01176   0.01905   2.49855
[...]
 Frc consts  --     0.0007                 0.0105                 0.0047
 IR Inten    --    21.8165                 0.2029                30.1660
 Raman Activ --    15.3273                 0.2810                 3.7941
 Depolar (P) --     0.7500                 0.5777                 0.7481
 Depolar (U) --     0.8571                 0.7323                 0.8559
  Atom  AN      X      Y      Z        X      Y      Z        X      Y      Z
     1   1     0.00   0.00   0.80     0.01   0.17   0.00     0.02  -0.53   0.00
     2  16     0.00   0.00  -0.02     0.01   0.29   0.00     0.01  -0.01   0.00
     3   1     0.00   0.00  -0.10    -0.10   0.29   0.00    -0.50   0.01   0.00
     4  16     0.00   0.00  -0.02    -0.02  -0.26   0.00    -0.01   0.05   0.00
     5   1     0.32  -0.02   0.27     0.10  -0.59   0.00     0.16  -0.46   0.00
     6   1    -0.32   0.02   0.27     0.10  -0.59   0.00     0.16  -0.46   0.00
                     4                      5                      6
                    A"                     A'                     A"
 Frequencies --    95.2836               137.4379               200.3202
 Red. masses --     1.0232                 1.1056                 1.0261
 Frc consts  --     0.0055                 0.0123                 0.0243
 IR Inten    --     1.0922                13.3286                17.8098
 Raman Activ --    30.5419                 8.8937                 2.5839
 Depolar (P) --     0.7500                 0.7467                 0.7500
 Depolar (U) --     0.8571                 0.8550                 0.8571
  Atom  AN      X      Y      Z        X      Y      Z        X      Y      Z
     1   1     0.00   0.00  -0.01     0.00   0.52   0.00     0.00   0.00   0.08
     2  16     0.00   0.00   0.02     0.00  -0.03   0.00     0.00   0.00  -0.02
     3   1     0.00   0.00  -0.41     0.54  -0.05   0.00     0.00   0.00   0.91
     4  16     0.00   0.00  -0.01    -0.03   0.04   0.00     0.00   0.00  -0.02
     5   1    -0.09   0.63   0.10     0.14  -0.45   0.00    -0.02   0.29   0.05
     6   1     0.09  -0.63   0.10     0.14  -0.45   0.00     0.02  -0.29   0.05
                     7                      8                      9
                    A'                     A'                     A'
 Frequencies --  1605.9895              1610.1780              3272.3405
 Red. masses --     1.0386                 1.0383                 1.0367
 Frc consts  --     1.5783                 1.5860                 6.5403
 IR Inten    --    22.7932                18.6435                 7.4519
 Raman Activ --    25.0689                21.6628               128.4376
 Depolar (P) --     0.7431                 0.7406                 0.1102
 Depolar (U) --     0.8526                 0.8509                 0.1985
  Atom  AN      X      Y      Z        X      Y      Z        X      Y      Z
     1   1     0.00   0.05   0.00     0.01   0.70   0.00    -0.63  -0.01   0.00
     2  16     0.00   0.00   0.00     0.02  -0.02   0.00     0.02  -0.02   0.00
     3   1    -0.05   0.00   0.00    -0.71   0.01   0.00     0.03   0.76   0.00
     4  16     0.03   0.01   0.00     0.00   0.00   0.00     0.00   0.00   0.00
     5   1    -0.47  -0.16  -0.50     0.03   0.01   0.04     0.08   0.03  -0.09
     6   1    -0.47  -0.16   0.50     0.03   0.01  -0.04     0.08   0.03   0.09
                    10                     11                     12
                    A'                     A'                     A"
 Frequencies --  3276.6416              3318.2873              3324.0053
 Red. masses --     1.0366                 1.0400                 1.0400
 Frc consts  --     6.5573                 6.7467                 6.7700
 IR Inten    --    18.3619                 6.6840                 8.2133
 Raman Activ --    62.9219                69.9620                53.1272
 Depolar (P) --     0.2373                 0.7455                 0.7500
 Depolar (U) --     0.3836                 0.8542                 0.8571
  Atom  AN      X      Y      Z        X      Y      Z        X      Y      Z
     1   1    -0.12   0.00   0.00     0.77   0.01   0.00     0.00   0.00   0.00
     2  16     0.00   0.00   0.00    -0.02  -0.02   0.00     0.00   0.00   0.00
     3   1     0.01   0.13   0.00     0.02   0.64   0.00     0.00   0.00   0.00
     4  16     0.03   0.01   0.00     0.00   0.00   0.00     0.00   0.00   0.03
     5   1    -0.45  -0.15   0.51     0.00   0.00   0.00     0.46   0.15  -0.51
     6   1    -0.45  -0.15  -0.51     0.00   0.00   0.00    -0.46  -0.15  -0.51

 -------------------
 - Thermochemistry -
 -------------------
 Temperature   298.150 Kelvin.  Pressure   1.00000 Atm.
 Atom     1 has atomic number  1 and mass   1.00783
 Atom     2 has atomic number 16 and mass  31.97207
 Atom     3 has atomic number  1 and mass   1.00783
 Atom     4 has atomic number 16 and mass  31.97207
 Atom     5 has atomic number  1 and mass   1.00783
 Atom     6 has atomic number  1 and mass   1.00783
 Molecular mass:    67.97544 amu.
 Principal axes and moments of inertia in atomic units:
                           1         2         3
     Eigenvalues --    17.859101021.661161026.23128
           X            0.02426   0.99971   0.00000
           Y            0.99971  -0.02426   0.00000
           Z            0.00000   0.00000   1.00000
 This molecule is an asymmetric top.
 Rotational symmetry number  1.
 Rotational temperatures (Kelvin)      4.84984     0.08478     0.08440
 Rotational constants (GHZ):         101.05441     1.76648     1.75861
 Zero-point vibrational energy     101777.4 (Joules/Mol)
                                   24.32539 (Kcal/Mol)
 Warning -- explicit consideration of   6 degrees of freedom as
           vibrations may cause significant error
 Vibrational temperatures:     49.67    80.65   122.00   137.09   197.74
          (Kelvin)            288.22  2310.66  2316.68  4708.16  4714.35
                             4774.27  4782.50
 
 Zero-point correction=                           0.038765 (Hartree/Particle)
 Thermal correction to Energy=                    0.046027
 Thermal correction to Enthalpy=                  0.046971
 Thermal correction to Gibbs Free Energy=         0.006366
 Sum of electronic and zero-point Energies=           -788.585537
 Sum of electronic and thermal Energies=              -788.578275
 Sum of electronic and thermal Enthalpies=            -788.577331
 Sum of electronic and thermal Free Energies=         -788.617936
 
                     E (Thermal)             CV                S
                      KCal/Mol        Cal/Mol-Kelvin    Cal/Mol-Kelvin
 Total                   28.883             17.689             85.460
 Electronic               0.000              0.000              0.000
 Translational            0.889              2.981             38.567
 Rotational               0.889              2.981             24.441
 Vibrational             27.105             11.728             22.452
 Vibration     1          0.594              1.983              5.551
 Vibration     2          0.596              1.975              4.591
 Vibration     3          0.601              1.960              3.777
 Vibration     4          0.603              1.953              3.549
 Vibration     5          0.614              1.916              2.839
 Vibration     6          0.638              1.839              2.130
                       Q            Log10(Q)             Ln(Q)
 Total Bot       0.117938D-02         -2.928346         -6.742765
 Total V=0       0.798487D+15         14.902268         34.313739
 Vib (Bot)       0.109300D-14        -14.961381        -34.449854
 Vib (Bot)    1  0.599542D+01          0.777820          1.790997
 Vib (Bot)    2  0.368552D+01          0.566499          1.304412
 Vib (Bot)    3  0.242688D+01          0.385048          0.886606
 Vib (Bot)    4  0.215578D+01          0.333605          0.768153
 Vib (Bot)    5  0.148049D+01          0.170404          0.392371
 Vib (Bot)    6  0.995261D+00         -0.002063         -0.004750
 Vib (V=0)       0.740001D+03          2.869232          6.606651
 Vib (V=0)    1  0.651624D+01          0.813997          1.874297
 Vib (V=0)    2  0.421928D+01          0.625239          1.439666
 Vib (V=0)    3  0.297785D+01          0.473903          1.091201
 Vib (V=0)    4  0.271301D+01          0.433451          0.998057
 Vib (V=0)    5  0.206264D+01          0.314423          0.723986
 Vib (V=0)    6  0.161380D+01          0.207849          0.478590
 Electronic      0.100000D+01          0.000000          0.000000
 Translational   0.220284D+08          7.342983         16.907844
 Rotational      0.489838D+05          4.690052         10.799245
 ***** Axes restored to original set *****
 -------------------------------------------------------------------
 Center     Atomic                   Forces (Hartrees/Bohr)
 Number     Number              X              Y              Z
 -------------------------------------------------------------------
      1        1           0.000000066    0.000000000    0.000000623
      2       16          -0.000001177    0.000000000   -0.000000492
      3        1           0.000001171    0.000000000   -0.000000014
      4       16          -0.000000921    0.000000000   -0.000003925
      5        1           0.000000430   -0.000003908    0.000001904
      6        1           0.000000430    0.000003908    0.000001904
 -------------------------------------------------------------------
 Cartesian Forces:  Max     0.000003925 RMS     0.000001792

 GradGradGradGradGradGradGradGradGradGradGradGradGradGradGradGradGradGrad
 Berny optimization.
 Internal  Forces:  Max     0.000006726 RMS     0.000002323
 Search for a local minimum.
 Step number   1 out of a maximum of    2
 All quantities printed in internal units (Hartrees-Bohrs-Radians)
 Second derivative matrix not updated -- analytic derivatives used.
 The second derivative matrix:
                          R1        R2        R3        R4        R5
           R1           0.40266
           R2          -0.00512   0.40229
           R3          -0.00032   0.00193   0.00221
           R4          -0.00004  -0.00009   0.00006   0.40284
           R5          -0.00004  -0.00009   0.00006  -0.00512   0.40284
           A1           0.00712   0.00665   0.00054   0.00000   0.00000
           A2          -0.00008   0.00006  -0.00030  -0.00030  -0.00051
           A3          -0.00004   0.00006  -0.00018  -0.00073  -0.00062
           A4           0.00008  -0.00029   0.00037   0.00452   0.00452
           A5          -0.00011  -0.00020   0.00021   0.00025   0.00025
           A6           0.00000   0.00000   0.00000  -0.00007   0.00007
           D1          -0.00003  -0.00018  -0.00013  -0.00220  -0.00225
           D2           0.00003   0.00018   0.00013   0.00227   0.00219
           D3          -0.00003   0.00000  -0.00013   0.00025   0.00034
                          A1        A2        A3        A4        A5
           A1           0.29891
           A2          -0.00017   0.00506
           A3          -0.00007   0.00235   0.00439
           A4          -0.00009  -0.01646  -0.02173   0.12983
           A5          -0.00105  -0.00058  -0.00102   0.00684   0.00275
           A6           0.00000  -0.00037   0.00020  -0.00001   0.00000
           D1           0.00001   0.00779   0.01049  -0.06313  -0.00325
           D2          -0.00001  -0.00762  -0.01058   0.06314   0.00325
           D3          -0.00011  -0.00084  -0.00019   0.00556   0.00045
                          A6        D1        D2        D3
           A6           0.00151
           D1          -0.00005   0.03079
           D2          -0.00010  -0.03070   0.03081
           D3           0.00017  -0.00281   0.00273   0.00098
 ITU=  0
     Eigenvalues ---    0.00009   0.00119   0.00146   0.00218   0.00251
     Eigenvalues ---    0.00331   0.19725   0.29796   0.39799   0.39835
     Eigenvalues ---    0.40761   0.40796
 Angle between quadratic step and forces=  80.48 degrees.
 Linear search not attempted -- first point.
 Iteration  1 RMS(Cart)=  0.00023560 RMS(Int)=  0.00000004
 Iteration  2 RMS(Cart)=  0.00000004 RMS(Int)=  0.00000002
 ClnCor:  largest displacement from symmetrization is 2.91D-08 for atom     6.
 Variable       Old X    -DE/DX   Delta X   Delta X   Delta X     New X
                                 (Linear)    (Quad)   (Total)
    R1        2.50999   0.00000   0.00000   0.00000   0.00000   2.50999
    R2        2.51223   0.00000   0.00000   0.00000   0.00000   2.51223
    R3        5.23190   0.00000   0.00000  -0.00010  -0.00010   5.23179
    R4        2.51071   0.00000   0.00000   0.00000   0.00000   2.51071
    R5        2.51071   0.00000   0.00000   0.00000   0.00000   2.51071
    A1        1.61670   0.00000   0.00000   0.00000   0.00000   1.61670
    A2        1.77865   0.00000   0.00000  -0.00026  -0.00026   1.77839
    A3        1.77865   0.00000   0.00000  -0.00026  -0.00026   1.77839
    A4        1.61670  -0.00001   0.00000  -0.00004  -0.00004   1.61666
    A5        3.08880   0.00000   0.00000   0.00017   0.00017   3.08896
    A6        3.14159   0.00000   0.00000   0.00000   0.00000   3.14159
    D1        2.30718   0.00000   0.00000   0.00009   0.00009   2.30727
    D2       -2.30718   0.00000   0.00000  -0.00009  -0.00009  -2.30727
    D3        1.79344   0.00000   0.00000  -0.00030  -0.00030   1.79314
         Item               Value     Threshold  Converged?
 Maximum Force            0.000007     0.000450     YES
 RMS     Force            0.000002     0.000300     YES
 Maximum Displacement     0.000413     0.001800     YES
 RMS     Displacement     0.000236     0.001200     YES
 Predicted change in Energy=-3.822362D-10
 Optimization completed.
    -- Stationary point found.
                           ----------------------------
                           !   Optimized Parameters   !
                           ! (Angstroms and Degrees)  !
 --------------------------                            --------------------------
 ! Name  Definition              Value          Derivative Info.                !
 --------------------------------------------------------------------------------
 ! R1    R(1,2)                  1.3282         -DE/DX =    0.0                 !
 ! R2    R(2,3)                  1.3294         -DE/DX =    0.0                 !
 ! R3    R(3,4)                  2.7686         -DE/DX =    0.0                 !
 ! R4    R(4,5)                  1.3286         -DE/DX =    0.0                 !
 ! R5    R(4,6)                  1.3286         -DE/DX =    0.0                 !
 ! A1    A(1,2,3)               92.6302         -DE/DX =    0.0                 !
 ! A2    A(3,4,5)              101.9091         -DE/DX =    0.0                 !
 ! A3    A(3,4,6)              101.9091         -DE/DX =    0.0                 !
 ! A4    A(5,4,6)               92.63           -DE/DX =    0.0                 !
 ! A5    L(2,3,4,1,-1)         176.975          -DE/DX =    0.0                 !
 ! A6    L(2,3,4,1,-2)         180.0            -DE/DX =    0.0                 !
 ! D1    D(1,2,4,5)            132.1915         -DE/DX =    0.0                 !
 ! D2    D(1,2,4,6)           -132.1915         -DE/DX =    0.0                 !
 ! D3    D(3,4,5,6)            102.7565         -DE/DX =    0.0                 !
 --------------------------------------------------------------------------------
 GradGradGradGradGradGradGradGradGradGradGradGradGradGradGradGradGradGrad

 1\1\GINC-NODE47\Freq\RHF\STO-3G\H4S2\cn410101\02-Sep-2018\0\\#N Geom=A
 llCheck Guess=TCheck SCRF=Check GenChk RHF/STO-3G Freq\\H2S optimizati
 on\\0,1\H,-0.7334022187,0.,-0.3602807805\S,-0.6785092405,0.,0.96681333
 94\H,0.6508917713,0.,0.9728836442\S,3.4162726246,0.,0.8394048612\H,3.7
 323466677,0.9607812375,1.7009157495\H,3.7323466677,-0.9607812375,1.700
 9157495\\Version=EM64L-G09RevC.01\State=1-A'\HF=-788.6243021\RMSD=9.61
 6e-11\RMSF=1.792e-06\ZeroPoint=0.038765\Thermal=0.0460272\Dipole=0.508
 5539,0.,0.1023505\DipoleDeriv=-0.0167896,0.,0.1232794,0.,0.1136222,0.,
 0.01044,0.,-0.1250703,0.077242,0.,-0.1404325,0.,-0.2453378,0.,-0.13925
 76,0.,0.1256162,0.0572251,0.,0.0322002,0.,0.120508,0.,0.1203437,0.,-0.
 012685,-0.3005862,0.,0.1387417,0.,-0.0056484,0.,0.1763858,0.,0.2164423
 ,0.0914543,-0.0332691,-0.0768945,0.0075112,0.0084279,0.0105165,-0.0839
 56,-0.0994627,-0.1021517,0.0914543,0.0332691,-0.0768945,-0.0075112,0.0
 084279,-0.0105165,-0.083956,0.0994627,-0.1021517\Polar=10.8461276,0.,1
 0.2503708,3.6515073,0.,14.2116646\PolarDeriv=-0.3822459,0.,-0.1660864,
 -2.6886596,0.,0.5078532,0.,-0.5551941,0.,0.,-2.9570224,0.,-0.217747,0.
 ,0.0559671,-0.9481859,0.,-8.0391531,-9.1588664,0.,0.2159044,1.7443777,
 0.,-0.7647266,0.,-2.5213217,0.,0.,2.4539263,0.,0.9792527,0.,-0.2231051
 ,-1.8053778,0.,7.6853906,11.0714854,0.,-0.0753305,1.1581943,0.,0.25203
 46,0.,2.8195395,0.,0.,0.4721675,0.,-0.8000866,0.,0.1722335,2.5101471,0
 .,0.262079,-4.1096137,0.,-1.1612653,-3.9505565,0.,-0.5592972,0.,-1.740
 5884,0.,0.,-4.5820846,0.,-0.0266702,0.,-3.2767853,-1.8282652,0.,-7.857
 142,1.2896203,2.6786298,0.5933889,1.868322,0.2302421,0.282068,0.222604
 1,0.9987824,5.2425433,0.1536648,2.3065066,0.3404162,0.0326255,0.265304
 3,1.6358449,1.0358409,3.0189533,3.9744128,1.2896203,-2.6786298,0.59338
 89,1.868322,-0.2302421,0.282068,-0.2226041,0.9987824,-5.2425433,-0.153
 6648,2.3065066,-0.3404162,0.0326255,-0.2653043,1.6358449,1.0358409,-3.
 0189533,3.9744128\HyperPolar=-12.6947939,0.,4.7362824,0.,-0.4343254,0.
 ,12.8257813,0.6188922,0.,-10.0787129\PG=CS [SG(H2S2),X(H2)]\NImag=0\\0
 .04828672,0.,0.00003766,0.01749548,0.,0.40182152,-0.04607008,0.,-0.022
 72920,0.44611301,0.,-0.00009118,0.,0.,0.00059298,0.03016324,0.,-0.4009
 3269,-0.02058089,0.,0.44815065,-0.00201825,0.,0.00490614,-0.39831067,0
 .,-0.00912256,0.40060181,0.,0.00010309,0.,0.,-0.00082414,0.,0.,0.00129
 075,-0.04776856,0.,-0.00090989,0.04331292,0.,-0.04751116,0.00419190,0.
 ,0.04894909,-0.00024782,0.,0.00023542,-0.00165285,0.,-0.00048736,-0.00
 055805,0.,0.00075015,0.05931823,0.,-0.00004196,0.,0.,0.00030736,0.,0.,
 -0.00058879,0.,0.,0.42699322,0.00014434,0.,-0.00007328,-0.00018369,0.,
 0.00044978,0.00006627,0.,-0.00054331,0.15110926,0.,0.41259393,0.000024
 71,-0.00003662,0.00004608,-0.00003971,0.00012148,0.00001378,0.00014258
 ,-0.00032051,-0.00024321,-0.02842975,-0.06989935,-0.07556809,0.0259700
 1,0.00000909,-0.00000381,-0.00000644,0.00004355,0.00000749,0.00001880,
 -0.00022037,0.00000954,0.00001083,-0.05171941,-0.21333492,-0.14159379,
 0.06101107,0.23613620,-0.00001725,-0.00002563,0.00004717,0.00009043,0.
 00004558,-0.00007829,-0.00002088,-0.00002079,0.00000764,-0.07580374,-0
 .19128802,-0.20621356,0.06932861,0.16642973,0.18889939,0.00002471,0.00
 003662,0.00004608,-0.00003971,-0.00012148,0.00001378,0.00014258,0.0003
 2051,-0.00024321,-0.02842975,0.06989935,-0.07556809,0.00233217,-0.0091
 2394,0.00642282,0.02597001,-0.00000909,-0.00000381,0.00000644,-0.00004
 355,0.00000749,-0.00001880,0.00022037,0.00000954,-0.00001083,0.0517194
 1,-0.21333492,0.14159379,0.00912394,-0.02281452,0.02485914,-0.06101107
 ,0.23613620,-0.00001725,0.00002563,0.00004717,0.00009043,-0.00004558,-
 0.00007829,-0.00002088,0.00002079,0.00000764,-0.07580374,0.19128802,-0
 .20621356,0.00642282,-0.02485914,0.01733765,0.06932861,-0.16642973,0.1
 8889939\\-0.00000007,0.,-0.00000062,0.00000118,0.,0.00000049,-0.000001
 17,0.,0.00000001,0.00000092,0.,0.00000392,-0.00000043,0.00000391,-0.00
 000190,-0.00000043,-0.00000391,-0.00000190\\\@


 "ANNA, YOU MUSN'T SPEAK OF OXIDIZED MURIATIC ACID
 ANYMORE, FROM NOW ON YOU MUST SAY CHLORINE."
   -- JENS JACOB BERZELIUS, IN 1820, TO HIS COOK, WHO HAD
 COMPLAINED OF THE SMELL OF THE FLASK SHE WAS CLEANING.
 Job cpu time:  0 days  0 hours  0 minutes  3.2 seconds.
 File lengths (MBytes):  RWF=      5 Int=      0 D2E=      0 Chk=      1 Scr=      1
 Normal termination of Gaussian 09 at Sun Sep  2 21:51:52 2018.
