 Entering Gaussian System, Link 0=g09
 Input=h2S.com
 Output=h2S.log
 Initial command:
 /global/g09-revC/l1.exe /scratch/cn410101.134350/Gau-61109.inp -scrdir=/scratch/cn410101.134350/
 Entering Link 1 = /global/g09-revC/l1.exe PID=     61110.
  
 Copyright (c) 1988,1990,1992,1993,1995,1998,2003,2009,2011,
            Gaussian, Inc.  All Rights Reserved.
  
 This is part of the Gaussian(R) 09 program.  It is based on
 the Gaussian(R) 03 system (copyright 2003, Gaussian, Inc.),
 the Gaussian(R) 98 system (copyright 1998, Gaussian, Inc.),
 the Gaussian(R) 94 system (copyright 1995, Gaussian, Inc.),
 the Gaussian 92(TM) system (copyright 1992, Gaussian, Inc.),
 the Gaussian 90(TM) system (copyright 1990, Gaussian, Inc.),
 the Gaussian 88(TM) system (copyright 1988, Gaussian, Inc.),
 the Gaussian 86(TM) system (copyright 1986, Carnegie Mellon
 University), and the Gaussian 82(TM) system (copyright 1983,
 Carnegie Mellon University). Gaussian is a federally registered
 trademark of Gaussian, Inc.
  
 This software contains proprietary and confidential information,
 including trade secrets, belonging to Gaussian, Inc.
  
 This software is provided under written license and may be
 used, copied, transmitted, or stored only in accord with that
 written license.
  
 The following legend is applicable only to US Government
 contracts under FAR:
  
                    RESTRICTED RIGHTS LEGEND
  
 Use, reproduction and disclosure by the US Government is
 subject to restrictions as set forth in subparagraphs (a)
 and (c) of the Commercial Computer Software - Restricted
 Rights clause in FAR 52.227-19.
  
 Gaussian, Inc.
 340 Quinnipiac St., Bldg. 40, Wallingford CT 06492
  
  
 ---------------------------------------------------------------
 Warning -- This program may not be used in any manner that
 competes with the business of Gaussian, Inc. or will provide
 assistance to any competitor of Gaussian, Inc.  The licensee
 of this program is prohibited from giving any competitor of
 Gaussian, Inc. access to this program.  By using this program,
 the user acknowledges that Gaussian, Inc. is engaged in the
 business of creating and licensing software in the field of
 computational chemistry and represents and warrants to the
 licensee that it is not a competitor of Gaussian, Inc. and that
 it will not use this program in any manner prohibited above.
 ---------------------------------------------------------------
  

 Cite this work as:
 Gaussian 09, Revision C.01,
 M. J. Frisch, G. W. Trucks, H. B. Schlegel, G. E. Scuseria, 
 M. A. Robb, J. R. Cheeseman, G. Scalmani, V. Barone, B. Mennucci, 
 G. A. Petersson, H. Nakatsuji, M. Caricato, X. Li, H. P. Hratchian, 
 A. F. Izmaylov, J. Bloino, G. Zheng, J. L. Sonnenberg, M. Hada, 
 M. Ehara, K. Toyota, R. Fukuda, J. Hasegawa, M. Ishida, T. Nakajima, 
 Y. Honda, O. Kitao, H. Nakai, T. Vreven, J. A. Montgomery, Jr., 
 J. E. Peralta, F. Ogliaro, M. Bearpark, J. J. Heyd, E. Brothers, 
 K. N. Kudin, V. N. Staroverov, T. Keith, R. Kobayashi, J. Normand, 
 K. Raghavachari, A. Rendell, J. C. Burant, S. S. Iyengar, J. Tomasi, 
 M. Cossi, N. Rega, J. M. Millam, M. Klene, J. E. Knox, J. B. Cross, 
 V. Bakken, C. Adamo, J. Jaramillo, R. Gomperts, R. E. Stratmann, 
 O. Yazyev, A. J. Austin, R. Cammi, C. Pomelli, J. W. Ochterski, 
 R. L. Martin, K. Morokuma, V. G. Zakrzewski, G. A. Voth, 
 P. Salvador, J. J. Dannenberg, S. Dapprich, A. D. Daniels, 
 O. Farkas, J. B. Foresman, J. V. Ortiz, J. Cioslowski, 
 and D. J. Fox, Gaussian, Inc., Wallingford CT, 2010.
 
 ******************************************
 Gaussian 09:  EM64L-G09RevC.01 23-Sep-2011
                 4-Sep-2018 
 ******************************************
 %nproc=2
 Will use up to    2 processors via shared memory.
 %mem=1GB
 -------------------
 #HF STO-3G opt freq
 -------------------
 1/18=20,19=15,38=1/1,3;
 2/9=110,12=2,17=6,18=5,40=1/2;
 3/6=3,11=9,16=1,25=1,30=1,71=1/1,2,3;
 4//1;
 5/5=2,38=5/2;
 6/7=2,8=2,9=2,10=2,28=1/1;
 7//1,2,3,16;
 1/18=20,19=15/3(2);
 2/9=110/2;
 99//99;
 2/9=110/2;
 3/6=3,11=9,16=1,25=1,30=1,71=1/1,2,3;
 4/5=5,16=3/1;
 5/5=2,38=5/2;
 7//1,2,3,16;
 1/18=20,19=15/3(-5);
 2/9=110/2;
 6/7=2,8=2,9=2,10=2,19=2,28=1/1;
 99/9=1/99;
 ----------------
 H2S optimization
 ----------------
 Charge =  0 Multiplicity = 1
 Symbolic Z-Matrix:
 H
 S                    1     1.4 
 H                    2     1.4      1     92. 
 

 GradGradGradGradGradGradGradGradGradGradGradGradGradGradGradGradGradGrad
 Berny optimization.
 Initialization pass.
                           ----------------------------
                           !    Initial Parameters    !
                           ! (Angstroms and Degrees)  !
 --------------------------                            --------------------------
 ! Name  Definition              Value          Derivative Info.                !
 --------------------------------------------------------------------------------
 ! R1    R(1,2)                  1.4            estimate D2E/DX2                !
 ! R2    R(2,3)                  1.4            estimate D2E/DX2                !
 ! A1    A(1,2,3)               92.0            estimate D2E/DX2                !
 --------------------------------------------------------------------------------
 Trust Radius=3.00D-01 FncErr=1.00D-07 GrdErr=1.00D-07
 Number of steps in this run=     20 maximum allowed number of steps=    100.
 GradGradGradGradGradGradGradGradGradGradGradGradGradGradGradGradGradGrad

                          Input orientation:                          
 ---------------------------------------------------------------------
 Center     Atomic      Atomic             Coordinates (Angstroms)
 Number     Number       Type             X           Y           Z
 ---------------------------------------------------------------------
      1          1           0        0.000000    0.000000    0.000000
      2         16           0        0.000000    0.000000    1.400000
      3          1           0        1.399147    0.000000    1.448859
 ---------------------------------------------------------------------
                    Distance matrix (angstroms):
                    1          2          3
     1  H    0.000000
     2  S    1.400000   0.000000
     3  H    2.014151   1.400000   0.000000
 Stoichiometry    H2S
 Framework group  C2V[C2(S),SGV(H2)]
 Deg. of freedom     2
 Full point group                 C2V     NOp   4
 Largest Abelian subgroup         C2V     NOp   4
 Largest concise Abelian subgroup C2      NOp   2
                         Standard orientation:                         
 ---------------------------------------------------------------------
 Center     Atomic      Atomic             Coordinates (Angstroms)
 Number     Number       Type             X           Y           Z
 ---------------------------------------------------------------------
      1          1           0        0.000000    1.007076   -0.864464
      2         16           0        0.000000    0.000000    0.108058
      3          1           0        0.000000   -1.007076   -0.864464
 ---------------------------------------------------------------------
 Rotational constants (GHZ):    281.8089070    247.2167005    131.6909185
 Standard basis: STO-3G (5D, 7F)
 There are     6 symmetry adapted basis functions of A1  symmetry.
 There are     0 symmetry adapted basis functions of A2  symmetry.
 There are     2 symmetry adapted basis functions of B1  symmetry.
 There are     3 symmetry adapted basis functions of B2  symmetry.
 Integral buffers will be    131072 words long.
 Raffenetti 1 integral format.
 Two-electron integral symmetry is turned on.
    11 basis functions,    33 primitive gaussians,    11 cartesian basis functions
     9 alpha electrons        9 beta electrons
       nuclear repulsion energy        12.3582086565 Hartrees.
 NAtoms=    3 NActive=    3 NUniq=    2 SFac= 2.25D+00 NAtFMM=   60 NAOKFM=F Big=F
 One-electron integrals computed using PRISM.
 NBasis=    11 RedAO= T  NBF=     6     0     2     3
 NBsUse=    11 1.00D-06 NBFU=     6     0     2     3
 Harris functional with IExCor=  205 diagonalized for initial guess.
 ExpMin= 1.69D-01 ExpMax= 5.33D+02 ExpMxC= 5.33D+02 IAcc=1 IRadAn=         1 AccDes= 0.00D+00
 HarFok:  IExCor=  205 AccDes= 0.00D+00 IRadAn=         1 IDoV= 1
 ScaDFX=  1.000000  1.000000  1.000000  1.000000
 FoFCou: FMM=F IPFlag=           0 FMFlag=      100000 FMFlg1=           0
         NFxFlg=           0 DoJE=T BraDBF=F KetDBF=T FulRan=T
         Omega=  0.000000  0.000000  1.000000  0.000000  0.000000 ICntrl=     500 IOpCl=  0
         NMat0=    1 NMatS0=    1 NMatT0=    0 NMatD0=    1 NMtDS0=    0 NMtDT0=    0
         I1Cent=           4 NGrid=           0.
 Petite list used in FoFCou.
 Initial guess orbital symmetries:
       Occupied  (A1) (A1) (B2) (A1) (B1) (A1) (B2) (A1) (B1)
       Virtual   (B2) (A1)
 The electronic state of the initial guess is 1-A1.
 Requested convergence on RMS density matrix=1.00D-08 within 128 cycles.
 Requested convergence on MAX density matrix=1.00D-06.
 Requested convergence on             energy=1.00D-06.
 No special actions if energy rises.
 Keep R1 ints in memory in canonical form, NReq=821994.
 SCF Done:  E(RHF) =  -394.305121727     A.U. after    7 cycles
             Convg  =    0.9734D-09             -V/T =  2.0120

 **********************************************************************

            Population analysis using the SCF density.

 **********************************************************************

 Orbital symmetries:
       Occupied  (A1) (A1) (B2) (A1) (B1) (A1) (B2) (A1) (B1)
       Virtual   (B2) (A1)
 The electronic state is 1-A1.
 Alpha  occ. eigenvalues --  -90.74555  -8.64696  -6.27912  -6.27722  -6.27403
 Alpha  occ. eigenvalues --   -0.87628  -0.48157  -0.38856  -0.27532
 Alpha virt. eigenvalues --    0.43359   0.48894
          Condensed to atoms (all electrons):
              1          2          3
     1  H    0.788971   0.265328  -0.015411
     2  S    0.265328  15.391569   0.265328
     3  H   -0.015411   0.265328   0.788971
 Mulliken atomic charges:
              1
     1  H   -0.038888
     2  S    0.077776
     3  H   -0.038888
 Sum of Mulliken atomic charges =   0.00000
 Mulliken charges with hydrogens summed into heavy atoms:
              1
     2  S    0.000000
 Sum of Mulliken charges with hydrogens summed into heavy atoms =   0.00000
 Electronic spatial extent (au):  <R**2>=             40.5042
 Charge=              0.0000 electrons
 Dipole moment (field-independent basis, Debye):
    X=              0.0000    Y=              0.0000    Z=             -0.9529  Tot=              0.9529
 Quadrupole moment (field-independent basis, Debye-Ang):
   XX=            -13.2366   YY=            -11.3866   ZZ=            -12.0374
   XY=              0.0000   XZ=              0.0000   YZ=              0.0000
 Traceless Quadrupole moment (field-independent basis, Debye-Ang):
   XX=             -1.0164   YY=              0.8336   ZZ=              0.1828
   XY=              0.0000   XZ=              0.0000   YZ=              0.0000
 Octapole moment (field-independent basis, Debye-Ang**2):
  XXX=              0.0000  YYY=              0.0000  ZZZ=              0.2908  XYY=              0.0000
  XXY=              0.0000  XXZ=              0.0140  XZZ=              0.0000  YZZ=              0.0000
  YYZ=              0.1373  XYZ=              0.0000
 Hexadecapole moment (field-independent basis, Debye-Ang**3):
 XXXX=            -11.6558 YYYY=            -19.4472 ZZZZ=            -18.2433 XXXY=              0.0000
 XXXZ=              0.0000 YYYX=              0.0000 YYYZ=              0.0000 ZZZX=              0.0000
 ZZZY=              0.0000 XXYY=             -5.2926 XXZZ=             -5.0995 YYZZ=             -5.8849
 XXYZ=              0.0000 YYXZ=              0.0000 ZZXY=              0.0000
 N-N= 1.235820865655D+01 E-N=-9.624549197451D+02  KE= 3.896174620654D+02
 Symmetry A1   KE= 3.172117468743D+02
 Symmetry A2   KE= 0.000000000000D+00
 Symmetry B1   KE= 3.731620150423D+01
 Symmetry B2   KE= 3.508951368684D+01
 Calling FoFJK, ICntrl=      2127 FMM=F ISym2X=1 I1Cent= 0 IOpClX= 0 NMat=1 NMatS=1 NMatT=0.
 ***** Axes restored to original set *****
 -------------------------------------------------------------------
 Center     Atomic                   Forces (Hartrees/Bohr)
 Number     Number              X              Y              Z
 -------------------------------------------------------------------
      1        1          -0.000396455    0.000000000    0.045798834
      2       16           0.046181225    0.000000000   -0.044596691
      3        1          -0.045784771    0.000000000   -0.001202143
 -------------------------------------------------------------------
 Cartesian Forces:  Max     0.046181225 RMS     0.030399107

 GradGradGradGradGradGradGradGradGradGradGradGradGradGradGradGradGradGrad
 Berny optimization.
 Internal  Forces:  Max     0.045798834 RMS     0.037399494
 Search for a local minimum.
 Step number   1 out of a maximum of   20
 All quantities printed in internal units (Hartrees-Bohrs-Radians)
 Mixed Optimization -- RFO/linear search
 Second derivative matrix not updated -- first step.
 The second derivative matrix:
                          R1        R2        A1
           R1           0.22149
           R2           0.00000   0.22149
           A1           0.00000   0.00000   0.16000
 ITU=  0
     Eigenvalues ---    0.16000   0.22149   0.22149
 RFO step:  Lambda=-1.75551287D-02 EMin= 1.60000000D-01
 Linear search not attempted -- first point.
 Iteration  1 RMS(Cart)=  0.12633280 RMS(Int)=  0.00026645
 Iteration  2 RMS(Cart)=  0.00037758 RMS(Int)=  0.00000005
 Iteration  3 RMS(Cart)=  0.00000004 RMS(Int)=  0.00000000
 ClnCor:  largest displacement from symmetrization is 7.07D-14 for atom     3.
 Variable       Old X    -DE/DX   Delta X   Delta X   Delta X     New X
                                 (Linear)    (Quad)   (Total)
    R1        2.64562  -0.04580   0.00000  -0.19159  -0.19159   2.45403
    R2        2.64562  -0.04580   0.00000  -0.19159  -0.19159   2.45403
    A1        1.60570   0.00105   0.00000   0.00591   0.00591   1.61161
         Item               Value     Threshold  Converged?
 Maximum Force            0.045799     0.000450     NO 
 RMS     Force            0.037399     0.000300     NO 
 Maximum Displacement     0.127546     0.001800     NO 
 RMS     Displacement     0.126516     0.001200     NO 
 Predicted change in Energy=-9.422244D-03
 GradGradGradGradGradGradGradGradGradGradGradGradGradGradGradGradGradGrad

                          Input orientation:                          
 ---------------------------------------------------------------------
 Center     Atomic      Atomic             Coordinates (Angstroms)
 Number     Number       Type             X           Y           Z
 ---------------------------------------------------------------------
      1          1           0        0.031263    0.000000    0.067495
      2         16           0        0.035099    0.000000    1.366105
      3          1           0        1.332785    0.000000    1.415259
 ---------------------------------------------------------------------
                    Distance matrix (angstroms):
                    1          2          3
     1  H    0.000000
     2  S    1.298616   0.000000
     3  H    1.873614   1.298616   0.000000
 Stoichiometry    H2S
 Framework group  C2V[C2(S),SGV(H2)]
 Deg. of freedom     2
 Full point group                 C2V     NOp   4
 Largest Abelian subgroup         C2V     NOp   4
 Largest concise Abelian subgroup C2      NOp   2
                         Standard orientation:                         
 ---------------------------------------------------------------------
 Center     Atomic      Atomic             Coordinates (Angstroms)
 Number     Number       Type             X           Y           Z
 ---------------------------------------------------------------------
      1          1           0        0.000000    0.936807   -0.799406
      2         16           0        0.000000    0.000000    0.099926
      3          1           0        0.000000   -0.936807   -0.799406
 ---------------------------------------------------------------------
 Rotational constants (GHZ):    329.5440753    285.6945222    153.0283333
 Standard basis: STO-3G (5D, 7F)
 There are     6 symmetry adapted basis functions of A1  symmetry.
 There are     0 symmetry adapted basis functions of A2  symmetry.
 There are     2 symmetry adapted basis functions of B1  symmetry.
 There are     3 symmetry adapted basis functions of B2  symmetry.
 Integral buffers will be    131072 words long.
 Raffenetti 1 integral format.
 Two-electron integral symmetry is turned on.
    11 basis functions,    33 primitive gaussians,    11 cartesian basis functions
     9 alpha electrons        9 beta electrons
       nuclear repulsion energy        13.3222150356 Hartrees.
 NAtoms=    3 NActive=    3 NUniq=    2 SFac= 2.25D+00 NAtFMM=   60 NAOKFM=F Big=F
 One-electron integrals computed using PRISM.
 NBasis=    11 RedAO= T  NBF=     6     0     2     3
 NBsUse=    11 1.00D-06 NBFU=     6     0     2     3
 Initial guess read from the read-write file.
 B after Tr=     0.000000    0.000000    0.000000
         Rot=    1.000000    0.000000    0.000000    0.000000 Ang=   0.00 deg.
 Initial guess orbital symmetries:
       Occupied  (A1) (A1) (B2) (A1) (B1) (A1) (B2) (A1) (B1)
       Virtual   (B2) (A1)
 Harris functional with IExCor=  205 diagonalized for initial guess.
 ExpMin= 1.69D-01 ExpMax= 5.33D+02 ExpMxC= 5.33D+02 IAcc=1 IRadAn=         1 AccDes= 0.00D+00
 HarFok:  IExCor=  205 AccDes= 0.00D+00 IRadAn=         1 IDoV= 1
 ScaDFX=  1.000000  1.000000  1.000000  1.000000
 FoFCou: FMM=F IPFlag=           0 FMFlag=      100000 FMFlg1=           0
         NFxFlg=           0 DoJE=T BraDBF=F KetDBF=T FulRan=T
         Omega=  0.000000  0.000000  1.000000  0.000000  0.000000 ICntrl=     500 IOpCl=  0
         NMat0=    1 NMatS0=    1 NMatT0=    0 NMatD0=    1 NMtDS0=    0 NMtDT0=    0
         I1Cent=           4 NGrid=           0.
 Petite list used in FoFCou.
 Requested convergence on RMS density matrix=1.00D-08 within 128 cycles.
 Requested convergence on MAX density matrix=1.00D-06.
 Requested convergence on             energy=1.00D-06.
 No special actions if energy rises.
 Keep R1 ints in memory in canonical form, NReq=821994.
 SCF Done:  E(RHF) =  -394.310286735     A.U. after    7 cycles
             Convg  =    0.4890D-08             -V/T =  2.0118
 Calling FoFJK, ICntrl=      2127 FMM=F ISym2X=1 I1Cent= 0 IOpClX= 0 NMat=1 NMatS=1 NMatT=0.
 ***** Axes restored to original set *****
 -------------------------------------------------------------------
 Center     Atomic                   Forces (Hartrees/Bohr)
 Number     Number              X              Y              Z
 -------------------------------------------------------------------
      1        1          -0.000828469    0.000000000   -0.024145382
      2       16          -0.023273291    0.000000000    0.022474756
      3        1           0.024101760    0.000000000    0.001670626
 -------------------------------------------------------------------
 Cartesian Forces:  Max     0.024145382 RMS     0.015684856

 GradGradGradGradGradGradGradGradGradGradGradGradGradGradGradGradGradGrad
 Berny optimization.
 Using GEDIIS/GDIIS optimizer.
 Internal  Forces:  Max     0.024147723 RMS     0.019745696
 Search for a local minimum.
 Step number   2 out of a maximum of   20
 All quantities printed in internal units (Hartrees-Bohrs-Radians)
 Mixed Optimization -- RFO/linear search
 Update second derivatives using D2CorX and points    1    2
 DE= -5.17D-03 DEPred=-9.42D-03 R= 5.48D-01
 SS=  1.41D+00  RLast= 2.71D-01 DXNew= 5.0454D-01 8.1303D-01
 Trust test= 5.48D-01 RLast= 2.71D-01 DXMaxT set to 5.05D-01
 The second derivative matrix:
                          R1        R2        A1
           R1           0.29336
           R2           0.07187   0.29336
           A1           0.00458   0.00458   0.15997
 ITU=  1  0
 Use linear search instead of GDIIS.
     Eigenvalues ---    0.15977   0.22149   0.36544
 RFO step:  Lambda=-1.85152915D-05 EMin= 1.59765506D-01
 Quartic linear search produced a step of -0.29702.
 Iteration  1 RMS(Cart)=  0.04238961 RMS(Int)=  0.00011918
 Iteration  2 RMS(Cart)=  0.00016451 RMS(Int)=  0.00000001
 Iteration  3 RMS(Cart)=  0.00000001 RMS(Int)=  0.00000000
 ClnCor:  largest displacement from symmetrization is 3.11D-15 for atom     3.
 Variable       Old X    -DE/DX   Delta X   Delta X   Delta X     New X
                                 (Linear)    (Quad)   (Total)
    R1        2.45403   0.02415   0.05690  -0.00006   0.05684   2.51087
    R2        2.45403   0.02415   0.05690  -0.00006   0.05684   2.51087
    A1        1.61161   0.00186  -0.00175   0.01076   0.00901   1.62062
         Item               Value     Threshold  Converged?
 Maximum Force            0.024148     0.000450     NO 
 RMS     Force            0.019746     0.000300     NO 
 Maximum Displacement     0.042338     0.001800     NO 
 RMS     Displacement     0.042484     0.001200     NO 
 Predicted change in Energy=-1.570707D-03
 GradGradGradGradGradGradGradGradGradGradGradGradGradGradGradGradGradGrad

                          Input orientation:                          
 ---------------------------------------------------------------------
 Center     Atomic      Atomic             Coordinates (Angstroms)
 Number     Number       Type             X           Y           Z
 ---------------------------------------------------------------------
      1          1           0        0.017276    0.000000    0.045090
      2         16           0        0.027183    0.000000    1.373749
      3          1           0        1.354688    0.000000    1.430020
 ---------------------------------------------------------------------
                    Distance matrix (angstroms):
                    1          2          3
     1  H    0.000000
     2  S    1.328696   0.000000
     3  H    1.925279   1.328696   0.000000
 Stoichiometry    H2S
 Framework group  C2V[C2(S),SGV(H2)]
 Deg. of freedom     2
 Full point group                 C2V     NOp   4
 Largest Abelian subgroup         C2V     NOp   4
 Largest concise Abelian subgroup C2      NOp   2
                         Standard orientation:                         
 ---------------------------------------------------------------------
 Center     Atomic      Atomic             Coordinates (Angstroms)
 Number     Number       Type             X           Y           Z
 ---------------------------------------------------------------------
      1          1           0        0.000000    0.962640   -0.814078
      2         16           0        0.000000    0.000000    0.101760
      3          1           0        0.000000   -0.962640   -0.814078
 ---------------------------------------------------------------------
 Rotational constants (GHZ):    317.7724206    270.5668833    146.1379392
 Standard basis: STO-3G (5D, 7F)
 There are     6 symmetry adapted basis functions of A1  symmetry.
 There are     0 symmetry adapted basis functions of A2  symmetry.
 There are     2 symmetry adapted basis functions of B1  symmetry.
 There are     3 symmetry adapted basis functions of B2  symmetry.
 Integral buffers will be    131072 words long.
 Raffenetti 1 integral format.
 Two-electron integral symmetry is turned on.
    11 basis functions,    33 primitive gaussians,    11 cartesian basis functions
     9 alpha electrons        9 beta electrons
       nuclear repulsion energy        13.0194333073 Hartrees.
 NAtoms=    3 NActive=    3 NUniq=    2 SFac= 2.25D+00 NAtFMM=   60 NAOKFM=F Big=F
 One-electron integrals computed using PRISM.
 NBasis=    11 RedAO= T  NBF=     6     0     2     3
 NBsUse=    11 1.00D-06 NBFU=     6     0     2     3
 Initial guess read from the read-write file.
 B after Tr=     0.000000    0.000000    0.000000
         Rot=    1.000000    0.000000    0.000000    0.000000 Ang=   0.00 deg.
 Initial guess orbital symmetries:
       Occupied  (A1) (A1) (B2) (A1) (B1) (A1) (B2) (A1) (B1)
       Virtual   (B2) (A1)
 Harris functional with IExCor=  205 diagonalized for initial guess.
 ExpMin= 1.69D-01 ExpMax= 5.33D+02 ExpMxC= 5.33D+02 IAcc=1 IRadAn=         1 AccDes= 0.00D+00
 HarFok:  IExCor=  205 AccDes= 0.00D+00 IRadAn=         1 IDoV= 1
 ScaDFX=  1.000000  1.000000  1.000000  1.000000
 FoFCou: FMM=F IPFlag=           0 FMFlag=      100000 FMFlg1=           0
         NFxFlg=           0 DoJE=T BraDBF=F KetDBF=T FulRan=T
         Omega=  0.000000  0.000000  1.000000  0.000000  0.000000 ICntrl=     500 IOpCl=  0
         NMat0=    1 NMatS0=    1 NMatT0=    0 NMatD0=    1 NMtDS0=    0 NMtDT0=    0
         I1Cent=           4 NGrid=           0.
 Petite list used in FoFCou.
 Requested convergence on RMS density matrix=1.00D-08 within 128 cycles.
 Requested convergence on MAX density matrix=1.00D-06.
 Requested convergence on             energy=1.00D-06.
 No special actions if energy rises.
 Keep R1 ints in memory in canonical form, NReq=821994.
 SCF Done:  E(RHF) =  -394.311625066     A.U. after    6 cycles
             Convg  =    0.3204D-08             -V/T =  2.0119
 Calling FoFJK, ICntrl=      2127 FMM=F ISym2X=1 I1Cent= 0 IOpClX= 0 NMat=1 NMatS=1 NMatT=0.
 ***** Axes restored to original set *****
 -------------------------------------------------------------------
 Center     Atomic                   Forces (Hartrees/Bohr)
 Number     Number              X              Y              Z
 -------------------------------------------------------------------
      1        1           0.000690986    0.000000000    0.000064314
      2       16          -0.000650827    0.000000000    0.000628496
      3        1          -0.000040160    0.000000000   -0.000692810
 -------------------------------------------------------------------
 Cartesian Forces:  Max     0.000692810 RMS     0.000444944

 GradGradGradGradGradGradGradGradGradGradGradGradGradGradGradGradGradGrad
 Berny optimization.
 Using GEDIIS/GDIIS optimizer.
 Internal  Forces:  Max     0.001733726 RMS     0.001002573
 Search for a local minimum.
 Step number   3 out of a maximum of   20
 All quantities printed in internal units (Hartrees-Bohrs-Radians)
 Mixed Optimization -- RFO/linear search
 Update second derivatives using D2CorX and points    1    2    3
 DE= -1.34D-03 DEPred=-1.57D-03 R= 8.52D-01
 SS=  1.41D+00  RLast= 8.09D-02 DXNew= 8.4853D-01 2.4267D-01
 Trust test= 8.52D-01 RLast= 8.09D-02 DXMaxT set to 5.05D-01
 The second derivative matrix:
                          R1        R2        A1
           R1           0.32230
           R2           0.10080   0.32230
           A1           0.01857   0.01857   0.16438
 ITU=  1  1  0
 Use linear search instead of GDIIS.
     Eigenvalues ---    0.16174   0.22149   0.42574
 RFO step:  Lambda=-1.81664364D-05 EMin= 1.61742065D-01
 Quartic linear search produced a step of -0.00903.
 Iteration  1 RMS(Cart)=  0.00868757 RMS(Int)=  0.00002890
 Iteration  2 RMS(Cart)=  0.00002469 RMS(Int)=  0.00000000
 Iteration  3 RMS(Cart)=  0.00000000 RMS(Int)=  0.00000000
 ClnCor:  largest displacement from symmetrization is 1.52D-13 for atom     3.
 Variable       Old X    -DE/DX   Delta X   Delta X   Delta X     New X
                                 (Linear)    (Quad)   (Total)
    R1        2.51087  -0.00007  -0.00051   0.00078   0.00027   2.51114
    R2        2.51087  -0.00007  -0.00051   0.00078   0.00027   2.51114
    A1        1.62062  -0.00173  -0.00008  -0.01054  -0.01062   1.61000
         Item               Value     Threshold  Converged?
 Maximum Force            0.001734     0.000450     NO 
 RMS     Force            0.001003     0.000300     NO 
 Maximum Displacement     0.008764     0.001800     NO 
 RMS     Displacement     0.008701     0.001200     NO 
 Predicted change in Energy=-9.180429D-06
 GradGradGradGradGradGradGradGradGradGradGradGradGradGradGradGradGradGrad

                          Input orientation:                          
 ---------------------------------------------------------------------
 Center     Atomic      Atomic             Coordinates (Angstroms)
 Number     Number       Type             X           Y           Z
 ---------------------------------------------------------------------
      1          1           0        0.021839    0.000000    0.047321
      2         16           0        0.024691    0.000000    1.376156
      3          1           0        1.352617    0.000000    1.425382
 ---------------------------------------------------------------------
                    Distance matrix (angstroms):
                    1          2          3
     1  H    0.000000
     2  S    1.328838   0.000000
     3  H    1.915730   1.328838   0.000000
 Stoichiometry    H2S
 Framework group  C2V[C2(S),SGV(H2)]
 Deg. of freedom     2
 Full point group                 C2V     NOp   4
 Largest Abelian subgroup         C2V     NOp   4
 Largest concise Abelian subgroup C2      NOp   2
                         Standard orientation:                         
 ---------------------------------------------------------------------
 Center     Atomic      Atomic             Coordinates (Angstroms)
 Number     Number       Type             X           Y           Z
 ---------------------------------------------------------------------
      1          1           0        0.000000    0.957865   -0.818698
      2         16           0        0.000000    0.000000    0.102337
      3          1           0        0.000000   -0.957865   -0.818698
 ---------------------------------------------------------------------
 Rotational constants (GHZ):    314.1963275    273.2708273    146.1540269
 Standard basis: STO-3G (5D, 7F)
 There are     6 symmetry adapted basis functions of A1  symmetry.
 There are     0 symmetry adapted basis functions of A2  symmetry.
 There are     2 symmetry adapted basis functions of B1  symmetry.
 There are     3 symmetry adapted basis functions of B2  symmetry.
 Integral buffers will be    131072 words long.
 Raffenetti 1 integral format.
 Two-electron integral symmetry is turned on.
    11 basis functions,    33 primitive gaussians,    11 cartesian basis functions
     9 alpha electrons        9 beta electrons
       nuclear repulsion energy        13.0194416442 Hartrees.
 NAtoms=    3 NActive=    3 NUniq=    2 SFac= 2.25D+00 NAtFMM=   60 NAOKFM=F Big=F
 One-electron integrals computed using PRISM.
 NBasis=    11 RedAO= T  NBF=     6     0     2     3
 NBsUse=    11 1.00D-06 NBFU=     6     0     2     3
 Initial guess read from the read-write file.
 B after Tr=     0.000000    0.000000    0.000000
         Rot=    1.000000    0.000000    0.000000    0.000000 Ang=   0.00 deg.
 Initial guess orbital symmetries:
       Occupied  (A1) (A1) (B2) (A1) (B1) (A1) (B2) (A1) (B1)
       Virtual   (B2) (A1)
 Requested convergence on RMS density matrix=1.00D-08 within 128 cycles.
 Requested convergence on MAX density matrix=1.00D-06.
 Requested convergence on             energy=1.00D-06.
 No special actions if energy rises.
 Keep R1 ints in memory in canonical form, NReq=821994.
 SCF Done:  E(RHF) =  -394.311626454     A.U. after    6 cycles
             Convg  =    0.2181D-09             -V/T =  2.0119
 Calling FoFJK, ICntrl=      2127 FMM=F ISym2X=1 I1Cent= 0 IOpClX= 0 NMat=1 NMatS=1 NMatT=0.
 ***** Axes restored to original set *****
 -------------------------------------------------------------------
 Center     Atomic                   Forces (Hartrees/Bohr)
 Number     Number              X              Y              Z
 -------------------------------------------------------------------
      1        1          -0.000584300    0.000000000    0.000103544
      2       16           0.000708173    0.000000000   -0.000683875
      3        1          -0.000123873    0.000000000    0.000580331
 -------------------------------------------------------------------
 Cartesian Forces:  Max     0.000708173 RMS     0.000431206

 GradGradGradGradGradGradGradGradGradGradGradGradGradGradGradGradGradGrad
 Berny optimization.
 Using GEDIIS/GDIIS optimizer.
 Internal  Forces:  Max     0.001467814 RMS     0.000851549
 Search for a local minimum.
 Step number   4 out of a maximum of   20
 All quantities printed in internal units (Hartrees-Bohrs-Radians)
 Mixed Optimization -- En-DIIS/RFO-DIIS
 Update second derivatives using D2CorX and points    1    2    3    4
 DE= -1.39D-06 DEPred=-9.18D-06 R= 1.51D-01
 Trust test= 1.51D-01 RLast= 1.06D-02 DXMaxT set to 5.05D-01
 The second derivative matrix:
                          R1        R2        A1
           R1           0.32301
           R2           0.10152   0.32301
           A1           0.00763   0.00763   0.30184
 ITU=  0  1  1  0
 Use linear search instead of GDIIS.
     Eigenvalues ---    0.22149   0.30090   0.42547
 RFO step:  Lambda=-3.57856885D-08 EMin= 2.21494485D-01
 Quartic linear search produced a step of -0.45888.
 Iteration  1 RMS(Cart)=  0.00392981 RMS(Int)=  0.00000609
 Iteration  2 RMS(Cart)=  0.00000529 RMS(Int)=  0.00000000
 Iteration  3 RMS(Cart)=  0.00000000 RMS(Int)=  0.00000000
 ClnCor:  largest displacement from symmetrization is 8.98D-14 for atom     3.
 Variable       Old X    -DE/DX   Delta X   Delta X   Delta X     New X
                                 (Linear)    (Quad)   (Total)
    R1        2.51114  -0.00010  -0.00012  -0.00021  -0.00033   2.51081
    R2        2.51114  -0.00010  -0.00012  -0.00021  -0.00033   2.51081
    A1        1.61000   0.00147   0.00487   0.00000   0.00487   1.61486
         Item               Value     Threshold  Converged?
 Maximum Force            0.001468     0.000450     NO 
 RMS     Force            0.000852     0.000300     NO 
 Maximum Displacement     0.003948     0.001800     NO 
 RMS     Displacement     0.003927     0.001200     NO 
 Predicted change in Energy=-3.614659D-06
 GradGradGradGradGradGradGradGradGradGradGradGradGradGradGradGradGradGrad

                          Input orientation:                          
 ---------------------------------------------------------------------
 Center     Atomic      Atomic             Coordinates (Angstroms)
 Number     Number       Type             X           Y           Z
 ---------------------------------------------------------------------
      1          1           0        0.019782    0.000000    0.046369
      2         16           0        0.025868    0.000000    1.375019
      3          1           0        1.353497    0.000000    1.427471
 ---------------------------------------------------------------------
                    Distance matrix (angstroms):
                    1          2          3
     1  H    0.000000
     2  S    1.328665   0.000000
     3  H    1.919958   1.328665   0.000000
 Stoichiometry    H2S
 Framework group  C2V[C2(S),SGV(H2)]
 Deg. of freedom     2
 Full point group                 C2V     NOp   4
 Largest Abelian subgroup         C2V     NOp   4
 Largest concise Abelian subgroup C2      NOp   2
                         Standard orientation:                         
 ---------------------------------------------------------------------
 Center     Atomic      Atomic             Coordinates (Angstroms)
 Number     Number       Type             X           Y           Z
 ---------------------------------------------------------------------
      1          1           0        0.000000    0.959979   -0.816516
      2         16           0        0.000000    0.000000    0.102064
      3          1           0        0.000000   -0.959979   -0.816516
 ---------------------------------------------------------------------
 Rotational constants (GHZ):    315.8779102    272.0686164    146.1705480
 Standard basis: STO-3G (5D, 7F)
 There are     6 symmetry adapted basis functions of A1  symmetry.
 There are     0 symmetry adapted basis functions of A2  symmetry.
 There are     2 symmetry adapted basis functions of B1  symmetry.
 There are     3 symmetry adapted basis functions of B2  symmetry.
 Integral buffers will be    131072 words long.
 Raffenetti 1 integral format.
 Two-electron integral symmetry is turned on.
    11 basis functions,    33 primitive gaussians,    11 cartesian basis functions
     9 alpha electrons        9 beta electrons
       nuclear repulsion energy        13.0204997148 Hartrees.
 NAtoms=    3 NActive=    3 NUniq=    2 SFac= 2.25D+00 NAtFMM=   60 NAOKFM=F Big=F
 One-electron integrals computed using PRISM.
 NBasis=    11 RedAO= T  NBF=     6     0     2     3
 NBsUse=    11 1.00D-06 NBFU=     6     0     2     3
 Initial guess read from the read-write file.
 B after Tr=     0.000000    0.000000    0.000000
         Rot=    1.000000    0.000000    0.000000    0.000000 Ang=   0.00 deg.
 Initial guess orbital symmetries:
       Occupied  (A1) (A1) (B2) (A1) (B1) (A1) (B2) (A1) (B1)
       Virtual   (B2) (A1)
 Requested convergence on RMS density matrix=1.00D-08 within 128 cycles.
 Requested convergence on MAX density matrix=1.00D-06.
 Requested convergence on             energy=1.00D-06.
 No special actions if energy rises.
 Keep R1 ints in memory in canonical form, NReq=821994.
 SCF Done:  E(RHF) =  -394.311630060     A.U. after    6 cycles
             Convg  =    0.1126D-09             -V/T =  2.0119
 Calling FoFJK, ICntrl=      2127 FMM=F ISym2X=1 I1Cent= 0 IOpClX= 0 NMat=1 NMatS=1 NMatT=0.
 ***** Axes restored to original set *****
 -------------------------------------------------------------------
 Center     Atomic                   Forces (Hartrees/Bohr)
 Number     Number              X              Y              Z
 -------------------------------------------------------------------
      1        1           0.000000157    0.000000000    0.000006545
      2       16           0.000006378    0.000000000   -0.000006159
      3        1          -0.000006536    0.000000000   -0.000000386
 -------------------------------------------------------------------
 Cartesian Forces:  Max     0.000006545 RMS     0.000004273

 GradGradGradGradGradGradGradGradGradGradGradGradGradGradGradGradGradGrad
 Berny optimization.
 Using GEDIIS/GDIIS optimizer.
 Internal  Forces:  Max     0.000006546 RMS     0.000005348
 Search for a local minimum.
 Step number   5 out of a maximum of   20
 All quantities printed in internal units (Hartrees-Bohrs-Radians)
 Mixed Optimization -- En-DIIS/RFO-DIIS
 Swaping is turned off.
 Update second derivatives using D2CorX and points    2    3    4    5
 DE= -3.61D-06 DEPred=-3.61D-06 R= 9.98D-01
 SS=  1.41D+00  RLast= 4.89D-03 DXNew= 8.4853D-01 1.4674D-02
 Trust test= 9.98D-01 RLast= 4.89D-03 DXMaxT set to 5.05D-01
 The second derivative matrix:
                          R1        R2        A1
           R1           0.32278
           R2           0.10129   0.32278
           A1           0.00893   0.00893   0.30272
 ITU=  1  0  1  1
     Eigenvalues ---    0.22149   0.30142   0.42537
 En-DIIS/RFO-DIIS IScMMF=        0 using points:     5    4
 RFO step:  Lambda= 0.00000000D+00.
 DidBck=F Rises=F RFO-DIIS coefs:    1.00038   -0.00038
 Iteration  1 RMS(Cart)=  0.00001046 RMS(Int)=  0.00000000
 Iteration  2 RMS(Cart)=  0.00000000 RMS(Int)=  0.00000000
 ClnCor:  largest displacement from symmetrization is 4.13D-14 for atom     3.
 Variable       Old X    -DE/DX   Delta X   Delta X   Delta X     New X
                                  (DIIS)     (GDIIS)  (Total)
    R1        2.51081  -0.00001   0.00000  -0.00002  -0.00002   2.51080
    R2        2.51081  -0.00001   0.00000  -0.00002  -0.00002   2.51080
    A1        1.61486   0.00000   0.00000   0.00000   0.00000   1.61486
         Item               Value     Threshold  Converged?
 Maximum Force            0.000007     0.000450     YES
 RMS     Force            0.000005     0.000300     YES
 Maximum Displacement     0.000011     0.001800     YES
 RMS     Displacement     0.000010     0.001200     YES
 Predicted change in Energy=-1.010395D-10
 Optimization completed.
    -- Stationary point found.
                           ----------------------------
                           !   Optimized Parameters   !
                           ! (Angstroms and Degrees)  !
 --------------------------                            --------------------------
 ! Name  Definition              Value          Derivative Info.                !
 --------------------------------------------------------------------------------
 ! R1    R(1,2)                  1.3287         -DE/DX =    0.0                 !
 ! R2    R(2,3)                  1.3287         -DE/DX =    0.0                 !
 ! A1    A(1,2,3)               92.5249         -DE/DX =    0.0                 !
 --------------------------------------------------------------------------------
 GradGradGradGradGradGradGradGradGradGradGradGradGradGradGradGradGradGrad

                          Input orientation:                          
 ---------------------------------------------------------------------
 Center     Atomic      Atomic             Coordinates (Angstroms)
 Number     Number       Type             X           Y           Z
 ---------------------------------------------------------------------
      1          1           0        0.019782    0.000000    0.046369
      2         16           0        0.025868    0.000000    1.375019
      3          1           0        1.353497    0.000000    1.427471
 ---------------------------------------------------------------------
                    Distance matrix (angstroms):
                    1          2          3
     1  H    0.000000
     2  S    1.328665   0.000000
     3  H    1.919958   1.328665   0.000000
 Stoichiometry    H2S
 Framework group  C2V[C2(S),SGV(H2)]
 Deg. of freedom     2
 Full point group                 C2V     NOp   4
 Largest Abelian subgroup         C2V     NOp   4
 Largest concise Abelian subgroup C2      NOp   2
                         Standard orientation:                         
 ---------------------------------------------------------------------
 Center     Atomic      Atomic             Coordinates (Angstroms)
 Number     Number       Type             X           Y           Z
 ---------------------------------------------------------------------
      1          1           0        0.000000    0.959979   -0.816516
      2         16           0        0.000000    0.000000    0.102064
      3          1           0        0.000000   -0.959979   -0.816516
 ---------------------------------------------------------------------
 Rotational constants (GHZ):    315.8779102    272.0686164    146.1705480

 **********************************************************************

            Population analysis using the SCF density.

 **********************************************************************

 Orbital symmetries:
       Occupied  (A1) (A1) (B2) (A1) (B1) (A1) (B2) (A1) (B1)
       Virtual   (B2) (A1)
 The electronic state is 1-A1.
 Alpha  occ. eigenvalues --  -90.74542  -8.64793  -6.28045  -6.27828  -6.27478
 Alpha  occ. eigenvalues --   -0.89817  -0.50721  -0.39454  -0.27807
 Alpha virt. eigenvalues --    0.47306   0.54344
          Condensed to atoms (all electrons):
              1          2          3
     1  H    0.780654   0.275188  -0.019827
     2  S    0.275188  15.377592   0.275188
     3  H   -0.019827   0.275188   0.780654
 Mulliken atomic charges:
              1
     1  H   -0.036015
     2  S    0.072031
     3  H   -0.036015
 Sum of Mulliken atomic charges =   0.00000
 Mulliken charges with hydrogens summed into heavy atoms:
              1
     2  S    0.000000
 Sum of Mulliken charges with hydrogens summed into heavy atoms =   0.00000
 Electronic spatial extent (au):  <R**2>=             39.2159
 Charge=              0.0000 electrons
 Dipole moment (field-independent basis, Debye):
    X=              0.0000    Y=              0.0000    Z=             -1.0267  Tot=              1.0267
 Quadrupole moment (field-independent basis, Debye-Ang):
   XX=            -13.2026   YY=            -11.3966   ZZ=            -12.0895
   XY=              0.0000   XZ=              0.0000   YZ=              0.0000
 Traceless Quadrupole moment (field-independent basis, Debye-Ang):
   XX=             -0.9730   YY=              0.8330   ZZ=              0.1400
   XY=              0.0000   XZ=              0.0000   YZ=              0.0000
 Octapole moment (field-independent basis, Debye-Ang**2):
  XXX=              0.0000  YYY=              0.0000  ZZZ=              0.1935  XYY=              0.0000
  XXY=              0.0000  XXZ=             -0.0325  XZZ=              0.0000  YZZ=              0.0000
  YYZ=              0.1789  XYZ=              0.0000
 Hexadecapole moment (field-independent basis, Debye-Ang**3):
 XXXX=            -11.6096 YYYY=            -18.5908 ZZZZ=            -17.4651 XXXY=              0.0000
 XXXZ=              0.0000 YYYX=              0.0000 YYYZ=              0.0000 ZZZX=              0.0000
 ZZZY=              0.0000 XXYY=             -5.1144 XXZZ=             -4.9396 YYZZ=             -5.7075
 XXYZ=              0.0000 YYXZ=              0.0000 ZZXY=              0.0000
 N-N= 1.302049971480D+01 E-N=-9.637384345634D+02  KE= 3.896838618442D+02
 Symmetry A1   KE= 3.172475092647D+02
 Symmetry A2   KE= 0.000000000000D+00
 Symmetry B1   KE= 3.731620150423D+01
 Symmetry B2   KE= 3.512015107533D+01
 1\1\GINC-NODE47\FOpt\RHF\STO-3G\H2S1\cn410101\04-Sep-2018\0\\#HF STO-3
 G opt freq\\H2S optimization\\0,1\H,0.0197819061,0.,0.0463687607\S,0.0
 258682295,0.,1.3750193412\H,1.3534970223,0.,1.4274711935\\Version=EM64
 L-G09RevC.01\State=1-A1\HF=-394.3116301\RMSD=1.126e-10\RMSF=4.273e-06\
 Dipole=0.2905574,0.,-0.280588\Quadrupole=0.3527102,-0.723401,0.3706908
 ,0.,0.2574476,0.\PG=C02V [C2(S1),SGV(H2)]\\@


     SCHOPENHAUER'S LAW OF ENTROPY
 IF YOU PUT A SPOONFUL OF WINE IN A BARREL FULL
 OF SEWAGE, YOU GET SEWAGE.
 IF YOU PUT A SPOONFUL OF SEWAGE IN A BARREL FULL
 OF WINE, YOU GET SEWAGE.
 Job cpu time:  0 days  0 hours  0 minutes  8.3 seconds.
 File lengths (MBytes):  RWF=      5 Int=      0 D2E=      0 Chk=      1 Scr=      1
 Normal termination of Gaussian 09 at Tue Sep  4 18:12:39 2018.
 Link1:  Proceeding to internal job step number  2.
 ---------------------------------------------------------------
 #N Geom=AllCheck Guess=TCheck SCRF=Check GenChk RHF/STO-3G Freq
 ---------------------------------------------------------------
 1/10=4,29=7,30=1,38=1,40=1/1,3;
 2/12=2,40=1/2;
 3/6=3,11=1,14=-4,16=1,25=1,30=1,70=2,71=2,116=1/1,2,3;
 4/5=101/1;
 5/5=2,98=1/2;
 8/6=4,10=90,11=11/1;
 10/13=10,15=4/2;
 11/6=3,8=1,9=11,15=111,16=1/1,2,10;
 10/6=1/2;
 6/7=2,8=2,9=2,10=2,18=1,28=1/1;
 7/8=1,10=1,25=1/1,2,3,16;
 1/10=4,30=1/3;
 99//99;
 Structure from the checkpoint file:  /scratch/cn410101.134350/Gau-61110.chk
 ----------------
 H2S optimization
 ----------------
 Charge =  0 Multiplicity = 1
 Redundant internal coordinates found in file.
 H,0,0.0197819061,0.,0.0463687607
 S,0,0.0258682295,0.,1.3750193412
 H,0,1.3534970223,0.,1.4274711935
 Recover connectivity data from disk.

 GradGradGradGradGradGradGradGradGradGradGradGradGradGradGradGradGradGrad
 Berny optimization.
 Initialization pass.
                           ----------------------------
                           !    Initial Parameters    !
                           ! (Angstroms and Degrees)  !
 --------------------------                            --------------------------
 ! Name  Definition              Value          Derivative Info.                !
 --------------------------------------------------------------------------------
 ! R1    R(1,2)                  1.3287         calculate D2E/DX2 analytically  !
 ! R2    R(2,3)                  1.3287         calculate D2E/DX2 analytically  !
 ! A1    A(1,2,3)               92.5249         calculate D2E/DX2 analytically  !
 --------------------------------------------------------------------------------
 Trust Radius=3.00D-01 FncErr=1.00D-07 GrdErr=1.00D-07
 Number of steps in this run=      2 maximum allowed number of steps=      2.
 GradGradGradGradGradGradGradGradGradGradGradGradGradGradGradGradGradGrad

                          Input orientation:                          
 ---------------------------------------------------------------------
 Center     Atomic      Atomic             Coordinates (Angstroms)
 Number     Number       Type             X           Y           Z
 ---------------------------------------------------------------------
      1          1           0        0.019782    0.000000    0.046369
      2         16           0        0.025868    0.000000    1.375019
      3          1           0        1.353497    0.000000    1.427471
 ---------------------------------------------------------------------
                    Distance matrix (angstroms):
                    1          2          3
     1  H    0.000000
     2  S    1.328665   0.000000
     3  H    1.919958   1.328665   0.000000
 Stoichiometry    H2S
 Framework group  C2V[C2(S),SGV(H2)]
 Deg. of freedom     2
 Full point group                 C2V     NOp   4
 Largest Abelian subgroup         C2V     NOp   4
 Largest concise Abelian subgroup C2      NOp   2
                         Standard orientation:                         
 ---------------------------------------------------------------------
 Center     Atomic      Atomic             Coordinates (Angstroms)
 Number     Number       Type             X           Y           Z
 ---------------------------------------------------------------------
      1          1           0        0.000000    0.959979   -0.816516
      2         16           0        0.000000    0.000000    0.102064
      3          1           0        0.000000   -0.959979   -0.816516
 ---------------------------------------------------------------------
 Rotational constants (GHZ):    315.8779102    272.0686164    146.1705480
 Standard basis: STO-3G (5D, 7F)
 There are     6 symmetry adapted basis functions of A1  symmetry.
 There are     0 symmetry adapted basis functions of A2  symmetry.
 There are     2 symmetry adapted basis functions of B1  symmetry.
 There are     3 symmetry adapted basis functions of B2  symmetry.
 Integral buffers will be    131072 words long.
 Raffenetti 1 integral format.
 Two-electron integral symmetry is turned on.
    11 basis functions,    33 primitive gaussians,    11 cartesian basis functions
     9 alpha electrons        9 beta electrons
       nuclear repulsion energy        13.0204997148 Hartrees.
 NAtoms=    3 NActive=    3 NUniq=    2 SFac= 2.25D+00 NAtFMM=   60 NAOKFM=F Big=F
 One-electron integrals computed using PRISM.
 NBasis=    11 RedAO= T  NBF=     6     0     2     3
 NBsUse=    11 1.00D-06 NBFU=     6     0     2     3
 Initial guess read from the checkpoint file:  /scratch/cn410101.134350/Gau-61110.chk
 B after Tr=     0.000000    0.000000    0.000000
         Rot=    1.000000    0.000000    0.000000    0.000000 Ang=   0.00 deg.
 Initial guess orbital symmetries:
       Occupied  (A1) (A1) (B2) (A1) (B1) (A1) (B2) (A1) (B1)
       Virtual   (B2) (A1)
 Requested convergence on RMS density matrix=1.00D-08 within 128 cycles.
 Requested convergence on MAX density matrix=1.00D-06.
 Requested convergence on             energy=1.00D-06.
 No special actions if energy rises.
 Keep R1 ints in memory in canonical form, NReq=821994.
 SCF Done:  E(RHF) =  -394.311630060     A.U. after    1 cycles
             Convg  =    0.2731D-13             -V/T =  2.0119
 Range of M.O.s used for correlation:     1    11
 NBasis=    11 NAE=     9 NBE=     9 NFC=     0 NFV=     0
 NROrb=     11 NOA=     9 NOB=     9 NVA=     2 NVB=     2
          Differentiating once with respect to electric field.
                with respect to dipole field.
          Electric field/nuclear overlap derivatives assumed to be zero.
          Keep R1 ints in memory in canonical form, NReq=802616.
          There are     3 degrees of freedom in the 1st order CPHF.  IDoFFX=0.
      3 vectors produced by pass  0 Test12= 6.00D-16 3.33D-08 XBig12= 2.17D+00 1.16D+00.
 AX will form     3 AO Fock derivatives at one time.
      3 vectors produced by pass  1 Test12= 6.00D-16 3.33D-08 XBig12= 4.41D-03 5.78D-02.
      2 vectors produced by pass  2 Test12= 6.00D-16 3.33D-08 XBig12= 2.14D-05 2.90D-03.
      2 vectors produced by pass  3 Test12= 6.00D-16 3.33D-08 XBig12= 1.48D-07 2.44D-04.
      2 vectors produced by pass  4 Test12= 6.00D-16 3.33D-08 XBig12= 6.18D-12 1.80D-06.
 Inverted reduced A of dimension    12 with in-core refinement.
 End of Minotr Frequency-dependent properties file   721 does not exist.
 End of Minotr Frequency-dependent properties file   722 does not exist.
 Symmetrizing basis deriv contribution to polar:
 IMax=3 JMax=2 DiffMx= 0.00D+00
 G2DrvN: will do     4 centers at a time, making    1 passes doing MaxLOS=1.
 Calling FoFCou, ICntrl=  3107 FMM=F I1Cent=   0 AccDes= 0.00D+00.
 FoFDir/FoFCou used for L=0 through L=1.
 End of G2Drv Frequency-dependent properties file   721 does not exist.
 End of G2Drv Frequency-dependent properties file   722 does not exist.
          IDoAtm=111
          Differentiating once with respect to electric field.
                with respect to dipole field.
          Differentiating once with respect to nuclear coordinates.
          Keep R1 ints in memory in canonical form, NReq=802680.
          There are     9 degrees of freedom in the 1st order CPHF.  IDoFFX=4.
 Will reuse    3 saved solutions.
      6 vectors produced by pass  0 Test12= 2.00D-16 1.11D-08 XBig12= 2.18D-02 1.48D-01.
 AX will form     6 AO Fock derivatives at one time.
      6 vectors produced by pass  1 Test12= 2.00D-16 1.11D-08 XBig12= 4.22D-06 1.26D-03.
      4 vectors produced by pass  2 Test12= 2.00D-16 1.11D-08 XBig12= 4.40D-09 4.08D-05.
      2 vectors produced by pass  3 Test12= 2.00D-16 1.11D-08 XBig12= 1.39D-13 3.39D-07.
 Inverted reduced A of dimension    18 with in-core refinement.
 Isotropic polarizability for W=    0.000000        5.71 Bohr**3.
 End of Minotr Frequency-dependent properties file   721 does not exist.
 End of Minotr Frequency-dependent properties file   722 does not exist.

 **********************************************************************

            Population analysis using the SCF density.

 **********************************************************************

 Orbital symmetries:
       Occupied  (A1) (A1) (B2) (A1) (B1) (A1) (B2) (A1) (B1)
       Virtual   (B2) (A1)
 The electronic state is 1-A1.
 Alpha  occ. eigenvalues --  -90.74542  -8.64793  -6.28045  -6.27828  -6.27478
 Alpha  occ. eigenvalues --   -0.89817  -0.50721  -0.39454  -0.27807
 Alpha virt. eigenvalues --    0.47306   0.54344
          Condensed to atoms (all electrons):
              1          2          3
     1  H    0.780654   0.275188  -0.019827
     2  S    0.275188  15.377592   0.275188
     3  H   -0.019827   0.275188   0.780654
 Mulliken atomic charges:
              1
     1  H   -0.036015
     2  S    0.072031
     3  H   -0.036015
 Sum of Mulliken atomic charges =   0.00000
 Mulliken charges with hydrogens summed into heavy atoms:
              1
     2  S    0.000000
 Sum of Mulliken charges with hydrogens summed into heavy atoms =   0.00000
 APT atomic charges:
              1
     1  H   -0.007290
     2  S    0.014579
     3  H   -0.007290
 Sum of APT charges=   0.00000
 APT Atomic charges with hydrogens summed into heavy atoms:
              1
     1  H    0.000000
     2  S    0.000000
     3  H    0.000000
 Sum of APT charges=   0.00000
 Electronic spatial extent (au):  <R**2>=             39.2159
 Charge=              0.0000 electrons
 Dipole moment (field-independent basis, Debye):
    X=              0.0000    Y=              0.0000    Z=             -1.0267  Tot=              1.0267
 Quadrupole moment (field-independent basis, Debye-Ang):
   XX=            -13.2026   YY=            -11.3966   ZZ=            -12.0895
   XY=              0.0000   XZ=              0.0000   YZ=              0.0000
 Traceless Quadrupole moment (field-independent basis, Debye-Ang):
   XX=             -0.9730   YY=              0.8330   ZZ=              0.1400
   XY=              0.0000   XZ=              0.0000   YZ=              0.0000
 Octapole moment (field-independent basis, Debye-Ang**2):
  XXX=              0.0000  YYY=              0.0000  ZZZ=              0.1935  XYY=              0.0000
  XXY=              0.0000  XXZ=             -0.0325  XZZ=              0.0000  YZZ=              0.0000
  YYZ=              0.1789  XYZ=              0.0000
 Hexadecapole moment (field-independent basis, Debye-Ang**3):
 XXXX=            -11.6096 YYYY=            -18.5908 ZZZZ=            -17.4651 XXXY=              0.0000
 XXXZ=              0.0000 YYYX=              0.0000 YYYZ=              0.0000 ZZZX=              0.0000
 ZZZY=              0.0000 XXYY=             -5.1144 XXZZ=             -4.9396 YYZZ=             -5.7075
 XXYZ=              0.0000 YYXZ=              0.0000 ZZXY=              0.0000
 N-N= 1.302049971480D+01 E-N=-9.637384345634D+02  KE= 3.896838618442D+02
 Symmetry A1   KE= 3.172475092647D+02
 Symmetry A2   KE= 0.000000000000D+00
 Symmetry B1   KE= 3.731620150423D+01
 Symmetry B2   KE= 3.512015107533D+01
  Exact polarizability:   0.637   0.000   9.648   0.000   0.000   6.852
 Approx polarizability:   0.383   0.000   8.157   0.000   0.000   6.695
 Calling FoFJK, ICntrl=    100127 FMM=F ISym2X=1 I1Cent= 0 IOpClX= 0 NMat=1 NMatS=1 NMatT=0.
 Full mass-weighted force constant matrix:
 Low frequencies ---   -0.0023    0.0008    0.0030    8.3443    8.3874    8.4371
 Low frequencies --- 1609.7241 3274.5972 3322.5760
 Harmonic frequencies (cm**-1), IR intensities (KM/Mole), Raman scattering
 activities (A**4/AMU), depolarization ratios for plane and unpolarized
 incident light, reduced masses (AMU), force constants (mDyne/A),
 and normal coordinates:
                     1                      2                      3
                    A1                     A1                     B2
 Frequencies --  1609.7241              3274.5972              3322.5760
 Red. masses --     1.0386                 1.0367                 1.0399
 Frc consts  --     1.5856                 6.5495                 6.7639
 IR Inten    --    23.0716                17.2314                10.4679
 Raman Activ --    23.8709                76.9153                51.9461
 Depolar (P) --     0.7413                 0.1407                 0.7500
 Depolar (U) --     0.8514                 0.2466                 0.8571
  Atom  AN      X      Y      Z        X      Y      Z        X      Y      Z
     1   1     0.00   0.50   0.50     0.00   0.51  -0.48     0.00  -0.51   0.49
     2  16     0.00   0.00  -0.03     0.00   0.00   0.03     0.00   0.03   0.00
     3   1     0.00  -0.50   0.50     0.00  -0.51  -0.48     0.00  -0.51  -0.49

 -------------------
 - Thermochemistry -
 -------------------
 Temperature   298.150 Kelvin.  Pressure   1.00000 Atm.
 Atom     1 has atomic number  1 and mass   1.00783
 Atom     2 has atomic number 16 and mass  31.97207
 Atom     3 has atomic number  1 and mass   1.00783
 Molecular mass:    33.98772 amu.
 Principal axes and moments of inertia in atomic units:
                           1         2         3
     Eigenvalues --     5.71341   6.63340  12.34682
           X            0.00000   0.00000   1.00000
           Y            1.00000   0.00000   0.00000
           Z            0.00000   1.00000   0.00000
 This molecule is an asymmetric top.
 Rotational symmetry number  2.
 Rotational temperatures (Kelvin)     15.15973    13.05722     7.01507
 Rotational constants (GHZ):         315.87791   272.06862   146.17055
 Zero-point vibrational energy      49088.1 (Joules/Mol)
                                   11.73235 (Kcal/Mol)
 Vibrational temperatures:   2316.03  4711.41  4780.44
          (Kelvin)
 
 Zero-point correction=                           0.018697 (Hartree/Particle)
 Thermal correction to Energy=                    0.021532
 Thermal correction to Enthalpy=                  0.022477
 Thermal correction to Gibbs Free Energy=        -0.000825
 Sum of electronic and zero-point Energies=           -394.292933
 Sum of electronic and thermal Energies=              -394.290098
 Sum of electronic and thermal Enthalpies=            -394.289154
 Sum of electronic and thermal Free Energies=         -394.312455
 
                     E (Thermal)             CV                S
                      KCal/Mol        Cal/Mol-Kelvin    Cal/Mol-Kelvin
 Total                   13.512              6.013             49.043
 Electronic               0.000              0.000              0.000
 Translational            0.889              2.981             36.501
 Rotational               0.889              2.981             12.534
 Vibrational             11.734              0.051              0.007
                       Q            Log10(Q)             Ln(Q)
 Total Bot       0.239702D+01          0.379671          0.874225
 Total V=0       0.953964D+09          8.979532         20.676137
 Vib (Bot)       0.251375D-08         -8.599677        -19.801488
 Vib (V=0)       0.100042D+01          0.000184          0.000423
 Electronic      0.100000D+01          0.000000          0.000000
 Translational   0.778822D+07          6.891438         15.868123
 Rotational      0.122436D+03          2.087910          4.807591
 ***** Axes restored to original set *****
 -------------------------------------------------------------------
 Center     Atomic                   Forces (Hartrees/Bohr)
 Number     Number              X              Y              Z
 -------------------------------------------------------------------
      1        1           0.000000157    0.000000000    0.000006545
      2       16           0.000006378    0.000000000   -0.000006159
      3        1          -0.000006536    0.000000000   -0.000000386
 -------------------------------------------------------------------
 Cartesian Forces:  Max     0.000006545 RMS     0.000004273

 GradGradGradGradGradGradGradGradGradGradGradGradGradGradGradGradGradGrad
 Berny optimization.
 Internal  Forces:  Max     0.000006546 RMS     0.000005348
 Search for a local minimum.
 Step number   1 out of a maximum of    2
 All quantities printed in internal units (Hartrees-Bohrs-Radians)
 Second derivative matrix not updated -- analytic derivatives used.
 The second derivative matrix:
                          R1        R2        A1
           R1           0.40243
           R2          -0.00520   0.40243
           A1           0.00697   0.00697   0.30193
 ITU=  0
     Eigenvalues ---    0.30093   0.39824   0.40763
 Angle between quadratic step and forces=   1.24 degrees.
 Linear search not attempted -- first point.
 Iteration  1 RMS(Cart)=  0.00001123 RMS(Int)=  0.00000000
 Iteration  2 RMS(Cart)=  0.00000000 RMS(Int)=  0.00000000
 ClnCor:  largest displacement from symmetrization is 1.51D-13 for atom     3.
 Variable       Old X    -DE/DX   Delta X   Delta X   Delta X     New X
                                 (Linear)    (Quad)   (Total)
    R1        2.51081  -0.00001   0.00000  -0.00002  -0.00002   2.51080
    R2        2.51081  -0.00001   0.00000  -0.00002  -0.00002   2.51080
    A1        1.61486   0.00000   0.00000   0.00000   0.00000   1.61486
         Item               Value     Threshold  Converged?
 Maximum Force            0.000007     0.000450     YES
 RMS     Force            0.000005     0.000300     YES
 Maximum Displacement     0.000011     0.001800     YES
 RMS     Displacement     0.000011     0.001200     YES
 Predicted change in Energy=-1.078750D-10
 Optimization completed.
    -- Stationary point found.
                           ----------------------------
                           !   Optimized Parameters   !
                           ! (Angstroms and Degrees)  !
 --------------------------                            --------------------------
 ! Name  Definition              Value          Derivative Info.                !
 --------------------------------------------------------------------------------
 ! R1    R(1,2)                  1.3287         -DE/DX =    0.0                 !
 ! R2    R(2,3)                  1.3287         -DE/DX =    0.0                 !
 ! A1    A(1,2,3)               92.5249         -DE/DX =    0.0                 !
 --------------------------------------------------------------------------------
 GradGradGradGradGradGradGradGradGradGradGradGradGradGradGradGradGradGrad

 1\1\GINC-NODE47\Freq\RHF\STO-3G\H2S1\cn410101\04-Sep-2018\0\\#N Geom=A
 llCheck Guess=TCheck SCRF=Check GenChk RHF/STO-3G Freq\\H2S optimizati
 on\\0,1\H,0.0197819061,0.,0.0463687607\S,0.0258682295,0.,1.3750193412\
 H,1.3534970223,0.,1.4274711935\\Version=EM64L-G09RevC.01\State=1-A1\HF
 =-394.3116301\RMSD=2.731e-14\RMSF=4.273e-06\ZeroPoint=0.0186967\Therma
 l=0.0215324\Dipole=0.2905574,0.,-0.280588\DipoleDeriv=-0.0208072,0.,0.
 1314356,0.,0.1163461,0.,0.0133291,0.,-0.1174079,0.1431466,0.,-0.141219
 2,0.,-0.2326922,0.,-0.1412192,0.,0.1332836,-0.1223394,0.,0.0097836,0.,
 0.1163461,0.,0.12789,0.,-0.0158757\Polar=8.201234,0.,0.6368635,1.39741
 28,0.,8.2988315\PolarDeriv=-0.1907709,0.,-0.1752953,-2.6645393,0.,0.70
 14777,0.,-0.4376156,0.,0.,-3.0301813,0.,-0.1905778,0.,0.058317,-0.6964
 768,0.,-8.1288693,-7.9058597,0.,0.2396944,1.7851559,0.,-0.9370498,0.,-
 2.5754472,0.,0.,2.4870805,0.,0.7946373,0.,-0.2314702,-1.9627617,0.,7.7
 448611,8.0966306,0.,-0.0643992,0.8793835,0.,0.2355721,0.,3.0130629,0.,
 0.,0.5431008,0.,-0.6040595,0.,0.1731532,2.6592386,0.,0.3840083\HyperPo
 lar=17.117024,0.,-0.3369445,0.,2.1130037,0.,0.3253835,-1.3894858,0.,-1
 7.3009108\PG=C02V [C2(S1),SGV(H2)]\NImag=0\\0.04792974,0.,0.00000260,0
 .00439958,0.,0.40239830,-0.04707121,0.,-0.00970559,0.44787234,0.,-0.00
 000255,0.,0.,0.00000511,0.04357819,0.,-0.40004963,-0.02152008,0.,0.446
 36934,-0.00085853,0.,0.00530601,-0.40080113,0.,-0.02205811,0.40165967,
 0.,-0.00000005,0.,0.,-0.00000255,0.,0.,0.00000260,-0.04797777,0.,-0.00
 234866,0.03122567,0.,-0.04631971,0.01675210,0.,0.04866837\\-0.00000016
 ,0.,-0.00000655,-0.00000638,0.,0.00000616,0.00000654,0.,0.00000039\\\@


    UPON JULIA'S CLOTHES

 WHENAS IN SILKS MY JULIA GOES,
 THEN, THEN, METHINKS, HOW SWEETLY FLOWS
 THAT LIQUEFACTION OF HER CLOTHES.

 NEXT, WHEN I CAST MINE EYES, AND SEE
 THAT BRAVE VIBRATION, EACH WAY FREE,
 O, HOW THAT GLITTERING TAKETH ME!
     -- ROBERT HERRICK, 1648
 Job cpu time:  0 days  0 hours  0 minutes  3.0 seconds.
 File lengths (MBytes):  RWF=      5 Int=      0 D2E=      0 Chk=      1 Scr=      1
 Normal termination of Gaussian 09 at Tue Sep  4 18:12:41 2018.
