 Entering Gaussian System, Link 0=g09
 Input=water-dimer.com
 Output=water-dimer.log
 Initial command:
 /global/g09-revC/l1.exe /scratch/cn410101.133956/Gau-61315.inp -scrdir=/scratch/cn410101.133956/
 Entering Link 1 = /global/g09-revC/l1.exe PID=     61316.
  
 Copyright (c) 1988,1990,1992,1993,1995,1998,2003,2009,2011,
            Gaussian, Inc.  All Rights Reserved.
  
 This is part of the Gaussian(R) 09 program.  It is based on
 the Gaussian(R) 03 system (copyright 2003, Gaussian, Inc.),
 the Gaussian(R) 98 system (copyright 1998, Gaussian, Inc.),
 the Gaussian(R) 94 system (copyright 1995, Gaussian, Inc.),
 the Gaussian 92(TM) system (copyright 1992, Gaussian, Inc.),
 the Gaussian 90(TM) system (copyright 1990, Gaussian, Inc.),
 the Gaussian 88(TM) system (copyright 1988, Gaussian, Inc.),
 the Gaussian 86(TM) system (copyright 1986, Carnegie Mellon
 University), and the Gaussian 82(TM) system (copyright 1983,
 Carnegie Mellon University). Gaussian is a federally registered
 trademark of Gaussian, Inc.
  
 This software contains proprietary and confidential information,
 including trade secrets, belonging to Gaussian, Inc.
  
 This software is provided under written license and may be
 used, copied, transmitted, or stored only in accord with that
 written license.
  
 The following legend is applicable only to US Government
 contracts under FAR:
  
                    RESTRICTED RIGHTS LEGEND
  
 Use, reproduction and disclosure by the US Government is
 subject to restrictions as set forth in subparagraphs (a)
 and (c) of the Commercial Computer Software - Restricted
 Rights clause in FAR 52.227-19.
  
 Gaussian, Inc.
 340 Quinnipiac St., Bldg. 40, Wallingford CT 06492
  
  
 ---------------------------------------------------------------
 Warning -- This program may not be used in any manner that
 competes with the business of Gaussian, Inc. or will provide
 assistance to any competitor of Gaussian, Inc.  The licensee
 of this program is prohibited from giving any competitor of
 Gaussian, Inc. access to this program.  By using this program,
 the user acknowledges that Gaussian, Inc. is engaged in the
 business of creating and licensing software in the field of
 computational chemistry and represents and warrants to the
 licensee that it is not a competitor of Gaussian, Inc. and that
 it will not use this program in any manner prohibited above.
 ---------------------------------------------------------------
  

 Cite this work as:
 Gaussian 09, Revision C.01,
 M. J. Frisch, G. W. Trucks, H. B. Schlegel, G. E. Scuseria, 
 M. A. Robb, J. R. Cheeseman, G. Scalmani, V. Barone, B. Mennucci, 
 G. A. Petersson, H. Nakatsuji, M. Caricato, X. Li, H. P. Hratchian, 
 A. F. Izmaylov, J. Bloino, G. Zheng, J. L. Sonnenberg, M. Hada, 
 M. Ehara, K. Toyota, R. Fukuda, J. Hasegawa, M. Ishida, T. Nakajima, 
 Y. Honda, O. Kitao, H. Nakai, T. Vreven, J. A. Montgomery, Jr., 
 J. E. Peralta, F. Ogliaro, M. Bearpark, J. J. Heyd, E. Brothers, 
 K. N. Kudin, V. N. Staroverov, T. Keith, R. Kobayashi, J. Normand, 
 K. Raghavachari, A. Rendell, J. C. Burant, S. S. Iyengar, J. Tomasi, 
 M. Cossi, N. Rega, J. M. Millam, M. Klene, J. E. Knox, J. B. Cross, 
 V. Bakken, C. Adamo, J. Jaramillo, R. Gomperts, R. E. Stratmann, 
 O. Yazyev, A. J. Austin, R. Cammi, C. Pomelli, J. W. Ochterski, 
 R. L. Martin, K. Morokuma, V. G. Zakrzewski, G. A. Voth, 
 P. Salvador, J. J. Dannenberg, S. Dapprich, A. D. Daniels, 
 O. Farkas, J. B. Foresman, J. V. Ortiz, J. Cioslowski, 
 and D. J. Fox, Gaussian, Inc., Wallingford CT, 2010.
 
 ******************************************
 Gaussian 09:  EM64L-G09RevC.01 23-Sep-2011
                 1-Sep-2018 
 ******************************************
 %nproc=2
 Will use up to    2 processors via shared memory.
 %mem=1GB
 -------------------
 #HF STO-3G opt freq
 -------------------
 1/18=20,19=15,38=1/1,3;
 2/9=110,12=2,17=6,18=5,40=1/2;
 3/6=3,11=9,16=1,25=1,30=1,71=1/1,2,3;
 4//1;
 5/5=2,38=5/2;
 6/7=2,8=2,9=2,10=2,28=1/1;
 7//1,2,3,16;
 1/18=20,19=15/3(2);
 2/9=110/2;
 99//99;
 2/9=110/2;
 3/6=3,11=9,16=1,25=1,30=1,71=1/1,2,3;
 4/5=5,16=3/1;
 5/5=2,38=5/2;
 7//1,2,3,16;
 1/18=20,19=15/3(-5);
 2/9=110/2;
 6/7=2,8=2,9=2,10=2,19=2,28=1/1;
 99/9=1/99;
 ------------------------
 Water Dimer Optimization
 ------------------------
 Charge =  0 Multiplicity = 1
 Symbolic Z-Matrix:
 H
 O                    1     1. 
 H                    2     1.       1     104. 
 O                    3     2.       2     175.     1     0.       0
 H                    4     1.       3     133.     1     90.      0
 H                    4     1.       3    -133.     1     90.      0
 

 GradGradGradGradGradGradGradGradGradGradGradGradGradGradGradGradGradGrad
 Berny optimization.
 Initialization pass.
                           ----------------------------
                           !    Initial Parameters    !
                           ! (Angstroms and Degrees)  !
 --------------------------                            --------------------------
 ! Name  Definition              Value          Derivative Info.                !
 --------------------------------------------------------------------------------
 ! R1    R(1,2)                  1.0            estimate D2E/DX2                !
 ! R2    R(2,3)                  1.0            estimate D2E/DX2                !
 ! R3    R(3,4)                  2.0            estimate D2E/DX2                !
 ! R4    R(4,5)                  1.0            estimate D2E/DX2                !
 ! R5    R(4,6)                  1.0            estimate D2E/DX2                !
 ! A1    A(1,2,3)              104.0            estimate D2E/DX2                !
 ! A2    A(3,4,5)              133.0            estimate D2E/DX2                !
 ! A3    A(3,4,6)              133.0            estimate D2E/DX2                !
 ! A4    A(5,4,6)               94.0            estimate D2E/DX2                !
 ! A5    L(2,3,4,1,-1)         175.0            estimate D2E/DX2                !
 ! A6    L(2,3,4,1,-2)         180.0            estimate D2E/DX2                !
 ! D1    D(1,2,4,5)             88.4468         estimate D2E/DX2                !
 ! D2    D(1,2,4,6)            -88.4468         estimate D2E/DX2                !
 ! D3    D(3,4,5,6)           -180.0            estimate D2E/DX2                !
 --------------------------------------------------------------------------------
 Trust Radius=3.00D-01 FncErr=1.00D-07 GrdErr=1.00D-07
 Number of steps in this run=     24 maximum allowed number of steps=    100.
 GradGradGradGradGradGradGradGradGradGradGradGradGradGradGradGradGradGrad

                          Input orientation:                          
 ---------------------------------------------------------------------
 Center     Atomic      Atomic             Coordinates (Angstroms)
 Number     Number       Type             X           Y           Z
 ---------------------------------------------------------------------
      1          1           0        0.000000    0.000000    0.000000
      2          8           0        0.000000    0.000000    1.000000
      3          1           0        0.970296    0.000000    1.241922
      4          8           0        2.945672    0.000000    1.554791
      5          1           0        3.619274    0.731354    1.661479
      6          1           0        3.619274   -0.731354    1.661479
 ---------------------------------------------------------------------
                    Distance matrix (angstroms):
                    1          2          3          4          5
     1  H    0.000000
     2  O    1.000000   0.000000
     3  H    1.576022   1.000000   0.000000
     4  O    3.330820   2.997462   2.000000   0.000000
     5  H    4.049017   3.751210   2.779927   1.000000   0.000000
     6  H    4.049017   3.751210   2.779927   1.000000   1.462707
                    6
     6  H    0.000000
 Stoichiometry    H4O2
 Framework group  CS[SG(H2O2),X(H2)]
 Deg. of freedom     8
 Full point group                 CS      NOp   2
 Largest Abelian subgroup         CS      NOp   2
 Largest concise Abelian subgroup CS      NOp   2
                         Standard orientation:                         
 ---------------------------------------------------------------------
 Center     Atomic      Atomic             Coordinates (Angstroms)
 Number     Number       Type             X           Y           Z
 ---------------------------------------------------------------------
      1          1           0       -0.934511   -1.792650    0.000000
      2          8           0        0.048211   -1.607563    0.000000
      3          1           0        0.106364   -0.609255    0.000000
      4          8           0        0.048211    1.389899    0.000000
      5          1           0        0.028381    2.071609    0.731354
      6          1           0        0.028381    2.071609   -0.731354
 ---------------------------------------------------------------------
 Rotational constants (GHZ):    252.8978796      5.9201482      5.9092178
 Standard basis: STO-3G (5D, 7F)
 There are    11 symmetry adapted basis functions of A'  symmetry.
 There are     3 symmetry adapted basis functions of A"  symmetry.
 Integral buffers will be    131072 words long.
 Raffenetti 1 integral format.
 Two-electron integral symmetry is turned on.
    14 basis functions,    42 primitive gaussians,    14 cartesian basis functions
    10 alpha electrons       10 beta electrons
       nuclear repulsion energy        35.2167753588 Hartrees.
 NAtoms=    6 NActive=    6 NUniq=    5 SFac= 1.44D+00 NAtFMM=   60 NAOKFM=F Big=F
 One-electron integrals computed using PRISM.
 NBasis=    14 RedAO= T  NBF=    11     3
 NBsUse=    14 1.00D-06 NBFU=    11     3
 Harris functional with IExCor=  205 diagonalized for initial guess.
 ExpMin= 1.69D-01 ExpMax= 1.31D+02 ExpMxC= 1.31D+02 IAcc=1 IRadAn=         1 AccDes= 0.00D+00
 HarFok:  IExCor=  205 AccDes= 0.00D+00 IRadAn=         1 IDoV= 1
 ScaDFX=  1.000000  1.000000  1.000000  1.000000
 FoFCou: FMM=F IPFlag=           0 FMFlag=      100000 FMFlg1=           0
         NFxFlg=           0 DoJE=T BraDBF=F KetDBF=T FulRan=T
         Omega=  0.000000  0.000000  1.000000  0.000000  0.000000 ICntrl=     500 IOpCl=  0
         NMat0=    1 NMatS0=    1 NMatT0=    0 NMatD0=    1 NMtDS0=    0 NMtDT0=    0
         I1Cent=           4 NGrid=           0.
 Petite list used in FoFCou.
 Initial guess orbital symmetries:
       Occupied  (A') (A') (A') (A') (A') (A") (A') (A') (A') (A")
       Virtual   (A') (A') (A") (A')
 The electronic state of the initial guess is 1-A'.
 Requested convergence on RMS density matrix=1.00D-08 within 128 cycles.
 Requested convergence on MAX density matrix=1.00D-06.
 Requested convergence on             energy=1.00D-06.
 No special actions if energy rises.
 Keep R1 ints in memory in canonical form, NReq=825356.
 SCF Done:  E(RHF) =  -149.935321708     A.U. after    9 cycles
             Convg  =    0.6864D-08             -V/T =  2.0061

 **********************************************************************

            Population analysis using the SCF density.

 **********************************************************************

 Orbital symmetries:
       Occupied  (A') (A') (A') (A') (A") (A') (A') (A') (A') (A")
       Virtual   (A') (A') (A") (A')
 The electronic state is 1-A'.
 Alpha  occ. eigenvalues --  -20.28177 -20.20734  -1.28052  -1.21703  -0.59853
 Alpha  occ. eigenvalues --   -0.57509  -0.49466  -0.41853  -0.41301  -0.35806
 Alpha virt. eigenvalues --    0.53934   0.62310   0.64603   0.74769
          Condensed to atoms (all electrons):
              1          2          3          4          5          6
     1  H    0.640196   0.252421  -0.040868   0.000128  -0.000009  -0.000009
     2  O    0.252421   7.845113   0.256144  -0.000952   0.000075   0.000075
     3  H   -0.040868   0.256144   0.591786   0.006414  -0.000553  -0.000553
     4  O    0.000128  -0.000952   0.006414   7.816375   0.250309   0.250309
     5  H   -0.000009   0.000075  -0.000553   0.250309   0.627638  -0.047306
     6  H   -0.000009   0.000075  -0.000553   0.250309  -0.047306   0.627638
 Mulliken atomic charges:
              1
     1  H    0.148140
     2  O   -0.352877
     3  H    0.187630
     4  O   -0.322584
     5  H    0.169845
     6  H    0.169845
 Sum of Mulliken atomic charges =   0.00000
 Mulliken charges with hydrogens summed into heavy atoms:
              1
     2  O   -0.017107
     4  O    0.017107
 Sum of Mulliken charges with hydrogens summed into heavy atoms =   0.00000
 Electronic spatial extent (au):  <R**2>=            201.8612
 Charge=              0.0000 electrons
 Dipole moment (field-independent basis, Debye):
    X=             -1.2331    Y=              3.2584    Z=              0.0000  Tot=              3.4840
 Quadrupole moment (field-independent basis, Debye-Ang):
   XX=            -11.0135   YY=             -8.2271   ZZ=            -10.7177
   XY=              2.2449   XZ=              0.0000   YZ=              0.0000
 Traceless Quadrupole moment (field-independent basis, Debye-Ang):
   XX=             -1.0274   YY=              1.7590   ZZ=             -0.7316
   XY=              2.2449   XZ=              0.0000   YZ=              0.0000
 Octapole moment (field-independent basis, Debye-Ang**2):
  XXX=             -0.6779  YYY=             20.7832  ZZZ=              0.0000  XYY=             -4.0245
  XXY=             -2.1135  XXZ=              0.0000  XZZ=              0.0828  YZZ=              2.9050
  YYZ=              0.0000  XYZ=              0.0000
 Hexadecapole moment (field-independent basis, Debye-Ang**3):
 XXXX=             -8.9592 YYYY=           -145.5191 ZZZZ=             -9.8306 XXXY=             -1.7909
 XXXZ=              0.0000 YYYX=              4.5446 YYYZ=              0.0000 ZZZX=              0.0000
 ZZZY=              0.0000 XXYY=            -28.7214 XXZZ=             -3.4190 YYZZ=            -26.7425
 XXYZ=              0.0000 YYXZ=              0.0000 ZZXY=             -0.9823
 N-N= 3.521677535885D+01 E-N=-4.276477933324D+02  KE= 1.490326838208D+02
 Symmetry A'   KE= 1.409583560641D+02
 Symmetry A"   KE= 8.074327756696D+00
 Calling FoFJK, ICntrl=      2127 FMM=F ISym2X=1 I1Cent= 0 IOpClX= 0 NMat=1 NMatS=1 NMatT=0.
 ***** Axes restored to original set *****
 -------------------------------------------------------------------
 Center     Atomic                   Forces (Hartrees/Bohr)
 Number     Number              X              Y              Z
 -------------------------------------------------------------------
      1        1           0.010977661    0.000000000    0.015009131
      2        8           0.002971333    0.000000000   -0.000582632
      3        1          -0.010726367    0.000000000   -0.013575142
      4        8           0.037378715    0.000000000    0.005105348
      5        1          -0.020300671    0.005168687   -0.002978353
      6        1          -0.020300671   -0.005168687   -0.002978353
 -------------------------------------------------------------------
 Cartesian Forces:  Max     0.037378715 RMS     0.012851567

 GradGradGradGradGradGradGradGradGradGradGradGradGradGradGradGradGradGrad
 Berny optimization.
 Internal  Forces:  Max     0.023329459 RMS     0.011899574
 Search for a local minimum.
 Step number   1 out of a maximum of   24
 All quantities printed in internal units (Hartrees-Bohrs-Radians)
 Mixed Optimization -- RFO/linear search
 Second derivative matrix not updated -- first step.
 The second derivative matrix:
                          R1        R2        R3        R4        R5
           R1           0.47688
           R2           0.00000   0.47688
           R3           0.00000   0.00000   0.04307
           R4           0.00000   0.00000   0.00000   0.47688
           R5           0.00000   0.00000   0.00000   0.00000   0.47688
           A1           0.00000   0.00000   0.00000   0.00000   0.00000
           A2           0.00000   0.00000   0.00000   0.00000   0.00000
           A3           0.00000   0.00000   0.00000   0.00000   0.00000
           A4           0.00000   0.00000   0.00000   0.00000   0.00000
           A5           0.00000   0.00000   0.00000   0.00000   0.00000
           A6           0.00000   0.00000   0.00000   0.00000   0.00000
           D1           0.00000   0.00000   0.00000   0.00000   0.00000
           D2           0.00000   0.00000   0.00000   0.00000   0.00000
           D3           0.00000   0.00000   0.00000   0.00000   0.00000
                          A1        A2        A3        A4        A5
           A1           0.16000
           A2           0.00000   0.16000
           A3           0.00000   0.00000   0.16000
           A4           0.00000   0.00000   0.00000   0.16000
           A5           0.00000   0.00000   0.00000   0.00000   0.00230
           A6           0.00000   0.00000   0.00000   0.00000   0.00000
           D1           0.00000   0.00000   0.00000   0.00000   0.00000
           D2           0.00000   0.00000   0.00000   0.00000   0.00000
           D3           0.00000   0.00000   0.00000   0.00000   0.00000
                          A6        D1        D2        D3
           A6           0.00230
           D1           0.00000   0.00230
           D2           0.00000   0.00000   0.00230
           D3           0.00000   0.00000   0.00000   0.01028
 ITU=  0
     Eigenvalues ---    0.00230   0.00230   0.00230   0.00679   0.04307
     Eigenvalues ---    0.15993   0.16000   0.16000   0.47684   0.47688
     Eigenvalues ---    0.47688   0.47688
 RFO step:  Lambda=-9.12679311D-03 EMin= 2.30000000D-03
 Linear search not attempted -- first point.
 Iteration  1 RMS(Cart)=  0.11866656 RMS(Int)=  0.00622612
 Iteration  2 RMS(Cart)=  0.00517352 RMS(Int)=  0.00028171
 Iteration  3 RMS(Cart)=  0.00000427 RMS(Int)=  0.00028168
 Iteration  4 RMS(Cart)=  0.00000000 RMS(Int)=  0.00028168
 ClnCor:  largest displacement from symmetrization is 1.35D-05 for atom     6.
 Variable       Old X    -DE/DX   Delta X   Delta X   Delta X     New X
                                 (Linear)    (Quad)   (Total)
    R1        1.88973  -0.01501   0.00000  -0.03088  -0.03088   1.85884
    R2        1.88973  -0.01702   0.00000  -0.03503  -0.03501   1.85471
    R3        3.77945  -0.00332   0.00000  -0.06354  -0.06355   3.71591
    R4        1.88973  -0.01021   0.00000  -0.02101  -0.02101   1.86872
    R5        1.88973  -0.01021   0.00000  -0.02101  -0.02101   1.86872
    A1        1.81514  -0.02074   0.00000  -0.12266  -0.12266   1.69248
    A2        2.32129  -0.01166   0.00000  -0.06901  -0.06908   2.25221
    A3        2.32129  -0.01166   0.00000  -0.06901  -0.06908   2.25221
    A4        1.64061   0.02333   0.00000   0.13803   0.13792   1.77853
    A5        3.05433  -0.00092   0.00000  -0.05897  -0.05926   2.99507
    A6        3.14159   0.00000   0.00000   0.00000   0.00000   3.14159
    D1        1.54369   0.00041   0.00000   0.00063   0.00116   1.54485
    D2       -1.54369  -0.00041   0.00000  -0.00063  -0.00116  -1.54485
    D3        3.14159   0.00012   0.00000  -0.02223  -0.02156   3.12003
         Item               Value     Threshold  Converged?
 Maximum Force            0.023329     0.000450     NO 
 RMS     Force            0.011900     0.000300     NO 
 Maximum Displacement     0.328420     0.001800     NO 
 RMS     Displacement     0.118914     0.001200     NO 
 Predicted change in Energy=-4.813828D-03
 GradGradGradGradGradGradGradGradGradGradGradGradGradGradGradGradGradGrad

                          Input orientation:                          
 ---------------------------------------------------------------------
 Center     Atomic      Atomic             Coordinates (Angstroms)
 Number     Number       Type             X           Y           Z
 ---------------------------------------------------------------------
      1          1           0        0.173792    0.000000    0.043098
      2          8           0        0.023737    0.000000    1.015243
      3          1           0        0.968373    0.000000    1.281602
      4          8           0        2.918583    0.000000    1.533211
      5          1           0        3.535019    0.767976    1.623259
      6          1           0        3.535019   -0.767976    1.623259
 ---------------------------------------------------------------------
                    Distance matrix (angstroms):
                    1          2          3          4          5
     1  H    0.000000
     2  O    0.983658   0.000000
     3  H    1.471479   0.981471   0.000000
     4  O    3.123190   2.940821   1.966373   0.000000
     5  H    3.792696   3.645350   2.700775   0.988883   0.000000
     6  H    3.792696   3.645350   2.700775   0.988883   1.535952
                    6
     6  H    0.000000
 Stoichiometry    H4O2
 Framework group  CS[SG(H2O2),X(H2)]
 Deg. of freedom     8
 Full point group                 CS      NOp   2
 Largest Abelian subgroup         CS      NOp   2
 Largest concise Abelian subgroup CS      NOp   2
                         Standard orientation:                         
 ---------------------------------------------------------------------
 Center     Atomic      Atomic             Coordinates (Angstroms)
 Number     Number       Type             X           Y           Z
 ---------------------------------------------------------------------
      1          1           0       -0.937005   -1.603854    0.000000
      2          8           0        0.046371   -1.580340    0.000000
      3          1           0        0.142187   -0.603557    0.000000
      4          8           0        0.046371    1.360481    0.000000
      5          1           0        0.026438    1.983140    0.767976
      6          1           0        0.026438    1.983140   -0.767976
 ---------------------------------------------------------------------
 Rotational constants (GHZ):    237.9039511      6.2150917      6.1957907
 Standard basis: STO-3G (5D, 7F)
 There are    11 symmetry adapted basis functions of A'  symmetry.
 There are     3 symmetry adapted basis functions of A"  symmetry.
 Integral buffers will be    131072 words long.
 Raffenetti 1 integral format.
 Two-electron integral symmetry is turned on.
    14 basis functions,    42 primitive gaussians,    14 cartesian basis functions
    10 alpha electrons       10 beta electrons
       nuclear repulsion energy        35.9014957232 Hartrees.
 NAtoms=    6 NActive=    6 NUniq=    5 SFac= 1.44D+00 NAtFMM=   60 NAOKFM=F Big=F
 One-electron integrals computed using PRISM.
 NBasis=    14 RedAO= T  NBF=    11     3
 NBsUse=    14 1.00D-06 NBFU=    11     3
 Initial guess read from the read-write file.
 B after Tr=     0.000000    0.000000    0.000000
         Rot=    1.000000    0.000000    0.000000    0.000000 Ang=   0.00 deg.
 Initial guess orbital symmetries:
       Occupied  (A') (A') (A') (A') (A") (A') (A') (A') (A') (A")
       Virtual   (A') (A') (A") (A')
 Harris functional with IExCor=  205 diagonalized for initial guess.
 ExpMin= 1.69D-01 ExpMax= 1.31D+02 ExpMxC= 1.31D+02 IAcc=1 IRadAn=         1 AccDes= 0.00D+00
 HarFok:  IExCor=  205 AccDes= 0.00D+00 IRadAn=         1 IDoV= 1
 ScaDFX=  1.000000  1.000000  1.000000  1.000000
 FoFCou: FMM=F IPFlag=           0 FMFlag=      100000 FMFlg1=           0
         NFxFlg=           0 DoJE=T BraDBF=F KetDBF=T FulRan=T
         Omega=  0.000000  0.000000  1.000000  0.000000  0.000000 ICntrl=     500 IOpCl=  0
         NMat0=    1 NMatS0=    1 NMatT0=    0 NMatD0=    1 NMtDS0=    0 NMtDT0=    0
         I1Cent=           4 NGrid=           0.
 Petite list used in FoFCou.
 Requested convergence on RMS density matrix=1.00D-08 within 128 cycles.
 Requested convergence on MAX density matrix=1.00D-06.
 Requested convergence on             energy=1.00D-06.
 No special actions if energy rises.
 Keep R1 ints in memory in canonical form, NReq=825356.
 SCF Done:  E(RHF) =  -149.938459036     A.U. after   10 cycles
             Convg  =    0.2028D-08             -V/T =  2.0057
 Calling FoFJK, ICntrl=      2127 FMM=F ISym2X=1 I1Cent= 0 IOpClX= 0 NMat=1 NMatS=1 NMatT=0.
 ***** Axes restored to original set *****
 -------------------------------------------------------------------
 Center     Atomic                   Forces (Hartrees/Bohr)
 Number     Number              X              Y              Z
 -------------------------------------------------------------------
      1        1          -0.007720888    0.000000000   -0.009563095
      2        8           0.001742046    0.000000000   -0.001991506
      3        1           0.009552761    0.000000000    0.012411777
      4        8          -0.003814112    0.000000000   -0.001526359
      5        1           0.000120096   -0.003798355    0.000334591
      6        1           0.000120096    0.003798355    0.000334591
 -------------------------------------------------------------------
 Cartesian Forces:  Max     0.012411777 RMS     0.004996433

 GradGradGradGradGradGradGradGradGradGradGradGradGradGradGradGradGradGrad
 Berny optimization.
 Using GEDIIS/GDIIS optimizer.
 Internal  Forces:  Max     0.016895697 RMS     0.005844131
 Search for a local minimum.
 Step number   2 out of a maximum of   24
 All quantities printed in internal units (Hartrees-Bohrs-Radians)
 Mixed Optimization -- RFO/linear search
 Update second derivatives using D2CorX and points    1    2
 DE= -3.14D-03 DEPred=-4.81D-03 R= 6.52D-01
 SS=  1.41D+00  RLast= 2.34D-01 DXNew= 5.0454D-01 7.0158D-01
 Trust test= 6.52D-01 RLast= 2.34D-01 DXMaxT set to 5.05D-01
 The second derivative matrix:
                          R1        R2        R3        R4        R5
           R1           0.49688
           R2           0.02172   0.50045
           R3          -0.00532  -0.00602   0.04221
           R4          -0.00282  -0.00350  -0.00338   0.46977
           R5          -0.00282  -0.00350  -0.00338  -0.00712   0.46977
           A1           0.03947   0.04321  -0.00727   0.00030   0.00030
           A2           0.00677   0.00713  -0.00387  -0.00472  -0.00472
           A3           0.00679   0.00716  -0.00387  -0.00472  -0.00472
           A4          -0.01365  -0.01439   0.00774   0.00939   0.00939
           A5           0.00020   0.00022  -0.00005  -0.00002  -0.00002
           A6           0.00000   0.00000   0.00000   0.00000   0.00000
           D1          -0.00086  -0.00096   0.00001  -0.00027  -0.00027
           D2           0.00086   0.00096  -0.00001   0.00027   0.00027
           D3          -0.00187  -0.00209  -0.00005  -0.00073  -0.00073
                          A1        A2        A3        A4        A5
           A1           0.23334
           A2           0.01630   0.16040
           A3           0.01634   0.00041   0.16043
           A4          -0.03277  -0.00087  -0.00090   0.16190
           A5           0.00039   0.00007   0.00007  -0.00014   0.00230
           A6           0.00000   0.00000   0.00000   0.00000   0.00000
           D1          -0.00139  -0.00049  -0.00049   0.00098  -0.00001
           D2           0.00139   0.00049   0.00049  -0.00098   0.00001
           D3          -0.00292  -0.00113  -0.00113   0.00226  -0.00002
                          A6        D1        D2        D3
           A6           0.00230
           D1           0.00000   0.00232
           D2           0.00000  -0.00002   0.00232
           D3           0.00000   0.00003  -0.00003   0.01033
 ITU=  1  0
 Use linear search instead of GDIIS.
     Eigenvalues ---    0.00230   0.00230   0.00230   0.00702   0.04123
     Eigenvalues ---    0.14422   0.15999   0.23762   0.46274   0.47684
     Eigenvalues ---    0.47688   0.53560
 RFO step:  Lambda=-1.07362525D-03 EMin= 2.29629705D-03
 Quartic linear search produced a step of -0.23861.
 Iteration  1 RMS(Cart)=  0.08161007 RMS(Int)=  0.00506064
 Iteration  2 RMS(Cart)=  0.00691704 RMS(Int)=  0.00031467
 Iteration  3 RMS(Cart)=  0.00000196 RMS(Int)=  0.00031467
 Iteration  4 RMS(Cart)=  0.00000000 RMS(Int)=  0.00031467
 ClnCor:  largest displacement from symmetrization is 1.21D-04 for atom     6.
 Variable       Old X    -DE/DX   Delta X   Delta X   Delta X     New X
                                 (Linear)    (Quad)   (Total)
    R1        1.85884   0.00827   0.00737   0.00256   0.00993   1.86878
    R2        1.85471   0.00889   0.00835   0.00212   0.01044   1.86515
    R3        3.71591  -0.00365   0.01516  -0.08740  -0.07222   3.64369
    R4        1.86872  -0.00284   0.00501  -0.01172  -0.00674   1.86198
    R5        1.86872  -0.00284   0.00501  -0.01172  -0.00674   1.86198
    A1        1.69248   0.01690   0.02927   0.03655   0.06582   1.75830
    A2        2.25221   0.00156   0.01648  -0.01731  -0.00130   2.25091
    A3        2.25221   0.00157   0.01648  -0.01724  -0.00130   2.25091
    A4        1.77853  -0.00314  -0.03291   0.03331   0.00003   1.77856
    A5        2.99507  -0.00070   0.01414  -0.21108  -0.19670   2.79837
    A6        3.14159   0.00000   0.00000   0.00000   0.00000   3.14159
    D1        1.54485  -0.00003  -0.00028  -0.01945  -0.02017   1.52467
    D2       -1.54485   0.00003   0.00028   0.01945   0.02017  -1.52467
    D3        3.12003  -0.00065   0.00514  -0.05870  -0.05407   3.06596
         Item               Value     Threshold  Converged?
 Maximum Force            0.016896     0.000450     NO 
 RMS     Force            0.005844     0.000300     NO 
 Maximum Displacement     0.203125     0.001800     NO 
 RMS     Displacement     0.085112     0.001200     NO 
 Predicted change in Energy=-9.076239D-04
 GradGradGradGradGradGradGradGradGradGradGradGradGradGradGradGradGradGrad

                          Input orientation:                          
 ---------------------------------------------------------------------
 Center     Atomic      Atomic             Coordinates (Angstroms)
 Number     Number       Type             X           Y           Z
 ---------------------------------------------------------------------
      1          1           0        0.269196    0.000000    0.031756
      2          8           0        0.051862    0.000000    0.996492
      3          1           0        0.957417    0.000000    1.389091
      4          8           0        2.881394    0.000000    1.515992
      5          1           0        3.497297    0.765216    1.593161
      6          1           0        3.497297   -0.765216    1.593161
 ---------------------------------------------------------------------
                    Distance matrix (angstroms):
                    1          2          3          4          5
     1  H    0.000000
     2  O    0.988913   0.000000
     3  H    1.521844   0.986997   0.000000
     4  O    3.004419   2.876826   1.928157   0.000000
     5  H    3.666631   3.579468   2.660487   0.985316   0.000000
     6  H    3.666631   3.579468   2.660487   0.985316   1.530432
                    6
     6  H    0.000000
 Stoichiometry    H4O2
 Framework group  CS[SG(H2O2),X(H2)]
 Deg. of freedom     8
 Full point group                 CS      NOp   2
 Largest Abelian subgroup         CS      NOp   2
 Largest concise Abelian subgroup CS      NOp   2
                         Standard orientation:                         
 ---------------------------------------------------------------------
 Center     Atomic      Atomic             Coordinates (Angstroms)
 Number     Number       Type             X           Y           Z
 ---------------------------------------------------------------------
      1          1           0       -0.946315   -1.510892    0.000000
      2          8           0        0.041807   -1.550440    0.000000
      3          1           0        0.264426   -0.588876    0.000000
      4          8           0        0.041807    1.326386    0.000000
      5          1           0        0.006487    1.946099    0.765216
      6          1           0        0.006487    1.946099   -0.765216
 ---------------------------------------------------------------------
 Rotational constants (GHZ):    232.0074076      6.4956605      6.4804793
 Standard basis: STO-3G (5D, 7F)
 There are    11 symmetry adapted basis functions of A'  symmetry.
 There are     3 symmetry adapted basis functions of A"  symmetry.
 Integral buffers will be    131072 words long.
 Raffenetti 1 integral format.
 Two-electron integral symmetry is turned on.
    14 basis functions,    42 primitive gaussians,    14 cartesian basis functions
    10 alpha electrons       10 beta electrons
       nuclear repulsion energy        36.2855221203 Hartrees.
 NAtoms=    6 NActive=    6 NUniq=    5 SFac= 1.44D+00 NAtFMM=   60 NAOKFM=F Big=F
 One-electron integrals computed using PRISM.
 NBasis=    14 RedAO= T  NBF=    11     3
 NBsUse=    14 1.00D-06 NBFU=    11     3
 Initial guess read from the read-write file.
 B after Tr=     0.000000    0.000000    0.000000
         Rot=    1.000000    0.000000    0.000000    0.000000 Ang=   0.00 deg.
 Initial guess orbital symmetries:
       Occupied  (A') (A') (A') (A') (A") (A') (A') (A') (A') (A")
       Virtual   (A') (A') (A") (A')
 Harris functional with IExCor=  205 diagonalized for initial guess.
 ExpMin= 1.69D-01 ExpMax= 1.31D+02 ExpMxC= 1.31D+02 IAcc=1 IRadAn=         1 AccDes= 0.00D+00
 HarFok:  IExCor=  205 AccDes= 0.00D+00 IRadAn=         1 IDoV= 1
 ScaDFX=  1.000000  1.000000  1.000000  1.000000
 FoFCou: FMM=F IPFlag=           0 FMFlag=      100000 FMFlg1=           0
         NFxFlg=           0 DoJE=T BraDBF=F KetDBF=T FulRan=T
         Omega=  0.000000  0.000000  1.000000  0.000000  0.000000 ICntrl=     500 IOpCl=  0
         NMat0=    1 NMatS0=    1 NMatT0=    0 NMatD0=    1 NMtDS0=    0 NMtDT0=    0
         I1Cent=           4 NGrid=           0.
 Petite list used in FoFCou.
 Requested convergence on RMS density matrix=1.00D-08 within 128 cycles.
 Requested convergence on MAX density matrix=1.00D-06.
 Requested convergence on             energy=1.00D-06.
 No special actions if energy rises.
 Keep R1 ints in memory in canonical form, NReq=825356.
 SCF Done:  E(RHF) =  -149.939190164     A.U. after    9 cycles
             Convg  =    0.7690D-08             -V/T =  2.0057
 Calling FoFJK, ICntrl=      2127 FMM=F ISym2X=1 I1Cent= 0 IOpClX= 0 NMat=1 NMatS=1 NMatT=0.
 ***** Axes restored to original set *****
 -------------------------------------------------------------------
 Center     Atomic                   Forces (Hartrees/Bohr)
 Number     Number              X              Y              Z
 -------------------------------------------------------------------
      1        1           0.001925500    0.000000000    0.001542709
      2        8          -0.003028181    0.000000000    0.001125751
      3        1           0.003794307    0.000000000   -0.002626784
      4        8          -0.007397312    0.000000000   -0.001272728
      5        1           0.002352843   -0.000305955    0.000615527
      6        1           0.002352843    0.000305955    0.000615527
 -------------------------------------------------------------------
 Cartesian Forces:  Max     0.007397312 RMS     0.002428743

 GradGradGradGradGradGradGradGradGradGradGradGradGradGradGradGradGradGrad
 Berny optimization.
 Using GEDIIS/GDIIS optimizer.
 Internal  Forces:  Max     0.004143946 RMS     0.001697004
 Search for a local minimum.
 Step number   3 out of a maximum of   24
 All quantities printed in internal units (Hartrees-Bohrs-Radians)
 Mixed Optimization -- RFO/linear search
 Update second derivatives using D2CorX and points    1    2    3
 DE= -7.31D-04 DEPred=-9.08D-04 R= 8.06D-01
 SS=  1.41D+00  RLast= 2.29D-01 DXNew= 8.4853D-01 6.8593D-01
 Trust test= 8.06D-01 RLast= 2.29D-01 DXMaxT set to 6.86D-01
 The second derivative matrix:
                          R1        R2        R3        R4        R5
           R1           0.50014
           R2           0.02161   0.49747
           R3           0.00366   0.00405   0.03144
           R4          -0.00640  -0.00336  -0.01285   0.47427
           R5          -0.00640  -0.00336  -0.01285  -0.00261   0.47427
           A1           0.05232   0.04681   0.01394  -0.01417  -0.01417
           A2           0.00331   0.00506  -0.00555  -0.00060  -0.00060
           A3           0.00330   0.00505  -0.00554  -0.00055  -0.00055
           A4          -0.00524  -0.00869   0.00970  -0.00046  -0.00046
           A5          -0.00423  -0.00313  -0.00012   0.00488   0.00488
           A6           0.00000   0.00000   0.00000   0.00000   0.00000
           D1          -0.00138  -0.00134  -0.00004   0.00030   0.00030
           D2           0.00138   0.00134   0.00004  -0.00030  -0.00030
           D3          -0.00034  -0.00036  -0.00196  -0.00235  -0.00235
                          A1        A2        A3        A4        A5
           A1           0.27875
           A2           0.00545   0.16264
           A3           0.00539   0.00266   0.16269
           A4          -0.00736  -0.00572  -0.00578   0.17219
           A5          -0.01237   0.00221   0.00222  -0.00458   0.00423
           A6           0.00000   0.00000   0.00000   0.00000   0.00000
           D1          -0.00290  -0.00023  -0.00023   0.00044   0.00023
           D2           0.00290   0.00023   0.00023  -0.00044  -0.00023
           D3           0.00067  -0.00140  -0.00140   0.00256   0.00000
                          A6        D1        D2        D3
           A6           0.00230
           D1           0.00000   0.00235
           D2           0.00000  -0.00005   0.00235
           D3           0.00000   0.00002  -0.00002   0.00999
 ITU=  1  1  0
 Use linear search instead of GDIIS.
     Eigenvalues ---    0.00230   0.00230   0.00325   0.00694   0.02898
     Eigenvalues ---    0.15988   0.17772   0.25987   0.46962   0.47688
     Eigenvalues ---    0.47792   0.54326
 RFO step:  Lambda=-4.91329977D-04 EMin= 2.30000000D-03
 Quartic linear search produced a step of -0.14922.
 Iteration  1 RMS(Cart)=  0.10001543 RMS(Int)=  0.00944866
 Iteration  2 RMS(Cart)=  0.01064448 RMS(Int)=  0.00057761
 Iteration  3 RMS(Cart)=  0.00010108 RMS(Int)=  0.00057464
 Iteration  4 RMS(Cart)=  0.00000002 RMS(Int)=  0.00057464
 ClnCor:  largest displacement from symmetrization is 3.64D-05 for atom     6.
 Variable       Old X    -DE/DX   Delta X   Delta X   Delta X     New X
                                 (Linear)    (Quad)   (Total)
    R1        1.86878  -0.00108  -0.00148   0.00200   0.00052   1.86930
    R2        1.86515  -0.00003  -0.00156   0.00384   0.00231   1.86746
    R3        3.64369  -0.00270   0.01078  -0.09774  -0.08698   3.55671
    R4        1.86198   0.00128   0.00101  -0.00322  -0.00220   1.85977
    R5        1.86198   0.00128   0.00101  -0.00322  -0.00220   1.85977
    A1        1.75830  -0.00414  -0.00982   0.01001   0.00019   1.75849
    A2        2.25091   0.00127   0.00019   0.00036   0.00040   2.25131
    A3        2.25091   0.00129   0.00019   0.00047   0.00040   2.25131
    A4        1.77856  -0.00259   0.00000  -0.00476  -0.00498   1.77359
    A5        2.79837   0.00109   0.02935   0.18847   0.21723   3.01560
    A6        3.14159   0.00000   0.00000   0.00000   0.00000   3.14159
    D1        1.52467   0.00028   0.00301   0.08216   0.08623   1.61090
    D2       -1.52467  -0.00028  -0.00301  -0.08216  -0.08623  -1.61090
    D3        3.06596  -0.00032   0.00807  -0.05305  -0.04361   3.02235
         Item               Value     Threshold  Converged?
 Maximum Force            0.004144     0.000450     NO 
 RMS     Force            0.001697     0.000300     NO 
 Maximum Displacement     0.251046     0.001800     NO 
 RMS     Displacement     0.105091     0.001200     NO 
 Predicted change in Energy=-2.892608D-04
 GradGradGradGradGradGradGradGradGradGradGradGradGradGradGradGradGradGrad

                          Input orientation:                          
 ---------------------------------------------------------------------
 Center     Atomic      Atomic             Coordinates (Angstroms)
 Number     Number       Type             X           Y           Z
 ---------------------------------------------------------------------
      1          1           0        0.136348    0.000000    0.039092
      2          8           0        0.074273    0.000000    1.026332
      3          1           0        1.031648    0.000000    1.271292
      4          8           0        2.899212    0.000000    1.505014
      5          1           0        3.506500    0.762765    1.638963
      6          1           0        3.506500   -0.762765    1.638963
 ---------------------------------------------------------------------
                    Distance matrix (angstroms):
                    1          2          3          4          5
     1  H    0.000000
     2  O    0.989190   0.000000
     3  H    1.523115   0.988217   0.000000
     4  O    3.127674   2.865208   1.882131   0.000000
     5  H    3.807798   3.568937   2.615699   0.984150   0.000000
     6  H    3.807798   3.568937   2.615699   0.984150   1.525529
                    6
     6  H    0.000000
 Stoichiometry    H4O2
 Framework group  CS[SG(H2O2),X(H2)]
 Deg. of freedom     8
 Full point group                 CS      NOp   2
 Largest Abelian subgroup         CS      NOp   2
 Largest concise Abelian subgroup CS      NOp   2
                         Standard orientation:                         
 ---------------------------------------------------------------------
 Center     Atomic      Atomic             Coordinates (Angstroms)
 Number     Number       Type             X           Y           Z
 ---------------------------------------------------------------------
      1          1           0       -0.941689   -1.642505    0.000000
      2          8           0        0.042047   -1.538773    0.000000
      3          1           0        0.123619   -0.553928    0.000000
      4          8           0        0.042047    1.326435    0.000000
      5          1           0        0.072656    1.947567    0.762765
      6          1           0        0.072656    1.947567   -0.762765
 ---------------------------------------------------------------------
 Rotational constants (GHZ):    240.6421176      6.5148154      6.4942775
 Standard basis: STO-3G (5D, 7F)
 There are    11 symmetry adapted basis functions of A'  symmetry.
 There are     3 symmetry adapted basis functions of A"  symmetry.
 Integral buffers will be    131072 words long.
 Raffenetti 1 integral format.
 Two-electron integral symmetry is turned on.
    14 basis functions,    42 primitive gaussians,    14 cartesian basis functions
    10 alpha electrons       10 beta electrons
       nuclear repulsion energy        36.3390177783 Hartrees.
 NAtoms=    6 NActive=    6 NUniq=    5 SFac= 1.44D+00 NAtFMM=   60 NAOKFM=F Big=F
 One-electron integrals computed using PRISM.
 NBasis=    14 RedAO= T  NBF=    11     3
 NBsUse=    14 1.00D-06 NBFU=    11     3
 Initial guess read from the read-write file.
 B after Tr=     0.000000    0.000000    0.000000
         Rot=    1.000000    0.000000    0.000000    0.000000 Ang=   0.00 deg.
 Initial guess orbital symmetries:
       Occupied  (A') (A') (A') (A') (A") (A') (A') (A') (A') (A")
       Virtual   (A') (A') (A") (A')
 Harris functional with IExCor=  205 diagonalized for initial guess.
 ExpMin= 1.69D-01 ExpMax= 1.31D+02 ExpMxC= 1.31D+02 IAcc=1 IRadAn=         1 AccDes= 0.00D+00
 HarFok:  IExCor=  205 AccDes= 0.00D+00 IRadAn=         1 IDoV= 1
 ScaDFX=  1.000000  1.000000  1.000000  1.000000
 FoFCou: FMM=F IPFlag=           0 FMFlag=      100000 FMFlg1=           0
         NFxFlg=           0 DoJE=T BraDBF=F KetDBF=T FulRan=T
         Omega=  0.000000  0.000000  1.000000  0.000000  0.000000 ICntrl=     500 IOpCl=  0
         NMat0=    1 NMatS0=    1 NMatT0=    0 NMatD0=    1 NMtDS0=    0 NMtDT0=    0
         I1Cent=           4 NGrid=           0.
 Petite list used in FoFCou.
 Requested convergence on RMS density matrix=1.00D-08 within 128 cycles.
 Requested convergence on MAX density matrix=1.00D-06.
 Requested convergence on             energy=1.00D-06.
 No special actions if energy rises.
 Keep R1 ints in memory in canonical form, NReq=825356.
 SCF Done:  E(RHF) =  -149.939575123     A.U. after   10 cycles
             Convg  =    0.9304D-08             -V/T =  2.0057
 Calling FoFJK, ICntrl=      2127 FMM=F ISym2X=1 I1Cent= 0 IOpClX= 0 NMat=1 NMatS=1 NMatT=0.
 ***** Axes restored to original set *****
 -------------------------------------------------------------------
 Center     Atomic                   Forces (Hartrees/Bohr)
 Number     Number              X              Y              Z
 -------------------------------------------------------------------
      1        1           0.001623289    0.000000000    0.001142276
      2        8          -0.000817616    0.000000000    0.000653876
      3        1           0.001841406    0.000000000   -0.001107877
      4        8          -0.007038201    0.000000000   -0.002505631
      5        1           0.002195561    0.001536775    0.000908677
      6        1           0.002195561   -0.001536775    0.000908677
 -------------------------------------------------------------------
 Cartesian Forces:  Max     0.007038201 RMS     0.002127652

 GradGradGradGradGradGradGradGradGradGradGradGradGradGradGradGradGradGrad
 Berny optimization.
 Using GEDIIS/GDIIS optimizer.
 Internal  Forces:  Max     0.003162424 RMS     0.001610231
 Search for a local minimum.
 Step number   4 out of a maximum of   24
 All quantities printed in internal units (Hartrees-Bohrs-Radians)
 Mixed Optimization -- RFO/linear search
 Update second derivatives using D2CorX and points    1    2    3    4
 DE= -3.85D-04 DEPred=-2.89D-04 R= 1.33D+00
 SS=  1.41D+00  RLast= 2.68D-01 DXNew= 1.1536D+00 8.0257D-01
 Trust test= 1.33D+00 RLast= 2.68D-01 DXMaxT set to 8.03D-01
 The second derivative matrix:
                          R1        R2        R3        R4        R5
           R1           0.50512
           R2           0.03051   0.51246
           R3           0.00326   0.00868   0.01285
           R4          -0.01767  -0.02483  -0.00945   0.49715
           R5          -0.01767  -0.02483  -0.00945   0.02027   0.49715
           A1           0.06284   0.06741   0.00515  -0.03510  -0.03510
           A2           0.00432   0.00597  -0.00101  -0.00506  -0.00506
           A3           0.00418   0.00571  -0.00097  -0.00470  -0.00470
           A4          -0.00678  -0.00861  -0.00309   0.00823   0.00823
           A5           0.00022   0.00442   0.00302  -0.00523  -0.00523
           A6           0.00000   0.00000   0.00000   0.00000   0.00000
           D1          -0.00150  -0.00187   0.00125   0.00011   0.00011
           D2           0.00150   0.00187  -0.00125  -0.00011  -0.00011
           D3           0.00021   0.00142  -0.00418  -0.00377  -0.00377
                          A1        A2        A3        A4        A5
           A1           0.29736
           A2           0.00974   0.16156
           A3           0.00941   0.00155   0.16154
           A4          -0.01665  -0.00242  -0.00240   0.16257
           A5          -0.00251   0.00312   0.00300  -0.00534   0.00808
           A6           0.00000   0.00000   0.00000   0.00000   0.00000
           D1          -0.00253  -0.00063  -0.00063   0.00150  -0.00004
           D2           0.00253   0.00063   0.00063  -0.00150   0.00004
           D3           0.00096  -0.00078  -0.00080   0.00094   0.00104
                          A6        D1        D2        D3
           A6           0.00230
           D1           0.00000   0.00226
           D2           0.00000   0.00004   0.00226
           D3           0.00000   0.00017  -0.00017   0.00985
 ITU=  1  1  1  0
 Use linear search instead of GDIIS.
     Eigenvalues ---    0.00230   0.00230   0.00254   0.00912   0.01499
     Eigenvalues ---    0.15969   0.16257   0.26372   0.47631   0.47688
     Eigenvalues ---    0.48713   0.60952
 RFO step:  Lambda=-8.63240758D-04 EMin= 2.30000000D-03
 Quartic linear search produced a step of  0.41083.
 Iteration  1 RMS(Cart)=  0.07459459 RMS(Int)=  0.02729782
 Iteration  2 RMS(Cart)=  0.03556611 RMS(Int)=  0.00292543
 Iteration  3 RMS(Cart)=  0.00002448 RMS(Int)=  0.00292528
 Iteration  4 RMS(Cart)=  0.00000007 RMS(Int)=  0.00292528
 ClnCor:  largest displacement from symmetrization is 1.61D-04 for atom     6.
 Variable       Old X    -DE/DX   Delta X   Delta X   Delta X     New X
                                 (Linear)    (Quad)   (Total)
    R1        1.86930  -0.00104   0.00021   0.00057   0.00078   1.87008
    R2        1.86746  -0.00122   0.00095   0.00287   0.00382   1.87128
    R3        3.55671  -0.00272  -0.03573  -0.26483  -0.30057   3.25615
    R4        1.85977   0.00267  -0.00090  -0.00005  -0.00091   1.85886
    R5        1.85977   0.00267  -0.00090  -0.00005  -0.00091   1.85886
    A1        1.75849  -0.00316   0.00008  -0.00378  -0.00370   1.75479
    A2        2.25131   0.00046   0.00017  -0.00409  -0.00978   2.24153
    A3        2.25131   0.00051   0.00017  -0.00356  -0.00978   2.24153
    A4        1.77359  -0.00104  -0.00205  -0.01280  -0.02089   1.75270
    A5        3.01560  -0.00041   0.08925  -0.01986   0.06903   3.08463
    A6        3.14159   0.00000   0.00000   0.00000   0.00000   3.14159
    D1        1.61090   0.00023   0.03543   0.10332   0.13936   1.75026
    D2       -1.61090  -0.00023  -0.03543  -0.10332  -0.13936  -1.75026
    D3        3.02235  -0.00053  -0.01792  -0.17434  -0.18955   2.83280
         Item               Value     Threshold  Converged?
 Maximum Force            0.003162     0.000450     NO 
 RMS     Force            0.001610     0.000300     NO 
 Maximum Displacement     0.192643     0.001800     NO 
 RMS     Displacement     0.101319     0.001200     NO 
 Predicted change in Energy=-5.542083D-04
 GradGradGradGradGradGradGradGradGradGradGradGradGradGradGradGradGradGrad

                          Input orientation:                          
 ---------------------------------------------------------------------
 Center     Atomic      Atomic             Coordinates (Angstroms)
 Number     Number       Type             X           Y           Z
 ---------------------------------------------------------------------
      1          1           0        0.149080    0.000000    0.072693
      2          8           0        0.158401    0.000000    1.062254
      3          1           0        1.133591    0.000000    1.234248
      4          8           0        2.844766    0.000000    1.436440
      5          1           0        3.434364    0.755858    1.657016
      6          1           0        3.434364   -0.755858    1.657016
 ---------------------------------------------------------------------
                    Distance matrix (angstroms):
                    1          2          3          4          5
     1  H    0.000000
     2  O    0.989605   0.000000
     3  H    1.522653   0.990240   0.000000
     4  O    3.021014   2.712300   1.723079   0.000000
     5  H    3.724848   3.414234   2.458376   0.983667   0.000000
     6  H    3.724848   3.414234   2.458376   0.983667   1.511715
                    6
     6  H    0.000000
 Stoichiometry    H4O2
 Framework group  CS[SG(H2O2),X(H2)]
 Deg. of freedom     8
 Full point group                 CS      NOp   2
 Largest Abelian subgroup         CS      NOp   2
 Largest concise Abelian subgroup CS      NOp   2
                         Standard orientation:                         
 ---------------------------------------------------------------------
 Center     Atomic      Atomic             Coordinates (Angstroms)
 Number     Number       Type             X           Y           Z
 ---------------------------------------------------------------------
      1          1           0       -0.945376   -1.605532    0.000000
      2          8           0        0.033437   -1.459781    0.000000
      3          1           0        0.069251   -0.470188    0.000000
      4          8           0        0.033437    1.252519    0.000000
      5          1           0        0.170564    1.866909    0.755858
      6          1           0        0.170564    1.866909   -0.755858
 ---------------------------------------------------------------------
 Rotational constants (GHZ):    242.7574456      7.2258448      7.2030496
 Standard basis: STO-3G (5D, 7F)
 There are    11 symmetry adapted basis functions of A'  symmetry.
 There are     3 symmetry adapted basis functions of A"  symmetry.
 Integral buffers will be    131072 words long.
 Raffenetti 1 integral format.
 Two-electron integral symmetry is turned on.
    14 basis functions,    42 primitive gaussians,    14 cartesian basis functions
    10 alpha electrons       10 beta electrons
       nuclear repulsion energy        37.3973358812 Hartrees.
 NAtoms=    6 NActive=    6 NUniq=    5 SFac= 1.44D+00 NAtFMM=   60 NAOKFM=F Big=F
 One-electron integrals computed using PRISM.
 NBasis=    14 RedAO= T  NBF=    11     3
 NBsUse=    14 1.00D-06 NBFU=    11     3
 Initial guess read from the read-write file.
 B after Tr=     0.000000    0.000000    0.000000
         Rot=    1.000000    0.000000    0.000000    0.000000 Ang=   0.00 deg.
 Initial guess orbital symmetries:
       Occupied  (A') (A') (A') (A') (A") (A') (A') (A') (A') (A")
       Virtual   (A') (A') (A") (A')
 Harris functional with IExCor=  205 diagonalized for initial guess.
 ExpMin= 1.69D-01 ExpMax= 1.31D+02 ExpMxC= 1.31D+02 IAcc=1 IRadAn=         1 AccDes= 0.00D+00
 HarFok:  IExCor=  205 AccDes= 0.00D+00 IRadAn=         1 IDoV= 1
 ScaDFX=  1.000000  1.000000  1.000000  1.000000
 FoFCou: FMM=F IPFlag=           0 FMFlag=      100000 FMFlg1=           0
         NFxFlg=           0 DoJE=T BraDBF=F KetDBF=T FulRan=T
         Omega=  0.000000  0.000000  1.000000  0.000000  0.000000 ICntrl=     500 IOpCl=  0
         NMat0=    1 NMatS0=    1 NMatT0=    0 NMatD0=    1 NMtDS0=    0 NMtDT0=    0
         I1Cent=           4 NGrid=           0.
 Petite list used in FoFCou.
 Requested convergence on RMS density matrix=1.00D-08 within 128 cycles.
 Requested convergence on MAX density matrix=1.00D-06.
 Requested convergence on             energy=1.00D-06.
 No special actions if energy rises.
 Keep R1 ints in memory in canonical form, NReq=825356.
 SCF Done:  E(RHF) =  -149.939853186     A.U. after   11 cycles
             Convg  =    0.1111D-08             -V/T =  2.0056
 Calling FoFJK, ICntrl=      2127 FMM=F ISym2X=1 I1Cent= 0 IOpClX= 0 NMat=1 NMatS=1 NMatT=0.
 ***** Axes restored to original set *****
 -------------------------------------------------------------------
 Center     Atomic                   Forces (Hartrees/Bohr)
 Number     Number              X              Y              Z
 -------------------------------------------------------------------
      1        1           0.000575192    0.000000000    0.001442056
      2        8           0.000310087    0.000000000   -0.000988271
      3        1          -0.003494717    0.000000000   -0.000045348
      4        8           0.004462665    0.000000000   -0.001345101
      5        1          -0.000926613    0.004965776    0.000468332
      6        1          -0.000926613   -0.004965776    0.000468332
 -------------------------------------------------------------------
 Cartesian Forces:  Max     0.004965776 RMS     0.002222320

 GradGradGradGradGradGradGradGradGradGradGradGradGradGradGradGradGradGrad
 Berny optimization.
 Using GEDIIS/GDIIS optimizer.
 Internal  Forces:  Max     0.004660140 RMS     0.002198564
 Search for a local minimum.
 Step number   5 out of a maximum of   24
 All quantities printed in internal units (Hartrees-Bohrs-Radians)
 Mixed Optimization -- RFO/linear search
 Update second derivatives using D2CorX and points    4    5
 DE= -2.78D-04 DEPred=-5.54D-04 R= 5.02D-01
 SS=  1.41D+00  RLast= 4.13D-01 DXNew= 1.3498D+00 1.2389D+00
 Trust test= 5.02D-01 RLast= 4.13D-01 DXMaxT set to 1.24D+00
 The second derivative matrix:
                          R1        R2        R3        R4        R5
           R1           0.50387
           R2           0.02885   0.51060
           R3          -0.00108   0.00588   0.02224
           R4          -0.01438  -0.02061   0.00058   0.48858
           R5          -0.01438  -0.02061   0.00058   0.01169   0.48858
           A1           0.05825   0.06292   0.00246  -0.02379  -0.02379
           A2           0.00369   0.00389  -0.01342  -0.00282  -0.00282
           A3           0.00349   0.00362  -0.01297  -0.00234  -0.00234
           A4          -0.01142  -0.01156   0.00724   0.01892   0.01892
           A5          -0.00038   0.00370   0.00152  -0.00370  -0.00370
           A6           0.00000   0.00000   0.00000   0.00000   0.00000
           D1          -0.00158  -0.00210  -0.00006   0.00038   0.00038
           D2           0.00158   0.00210   0.00006  -0.00038  -0.00038
           D3          -0.00035   0.00063  -0.00644  -0.00228  -0.00228
                          A1        A2        A3        A4        A5
           A1           0.28769
           A2           0.00190   0.16552
           A3           0.00169   0.00522   0.16493
           A4          -0.01936  -0.01580  -0.01533   0.17394
           A5          -0.00439   0.00259   0.00246  -0.00694   0.00781
           A6           0.00000   0.00000   0.00000   0.00000   0.00000
           D1          -0.00338  -0.00024  -0.00027   0.00008  -0.00010
           D2           0.00338   0.00024   0.00027  -0.00008   0.00010
           D3          -0.00126  -0.00093  -0.00098  -0.00147   0.00077
                          A6        D1        D2        D3
           A6           0.00230
           D1           0.00000   0.00230
           D2           0.00000   0.00000   0.00230
           D3           0.00000   0.00015  -0.00015   0.00961
 ITU=  1  1  1  1  0
 Use linear search instead of GDIIS.
     Eigenvalues ---    0.00230   0.00230   0.00439   0.00883   0.02280
     Eigenvalues ---    0.15785   0.19011   0.26023   0.47536   0.47688
     Eigenvalues ---    0.48304   0.58821
 RFO step:  Lambda=-1.96795285D-04 EMin= 2.30000000D-03
 Quartic linear search produced a step of -0.30539.
 Iteration  1 RMS(Cart)=  0.02200169 RMS(Int)=  0.00084857
 Iteration  2 RMS(Cart)=  0.00029433 RMS(Int)=  0.00081863
 Iteration  3 RMS(Cart)=  0.00000009 RMS(Int)=  0.00081863
 ClnCor:  largest displacement from symmetrization is 6.96D-04 for atom     6.
 Variable       Old X    -DE/DX   Delta X   Delta X   Delta X     New X
                                 (Linear)    (Quad)   (Total)
    R1        1.87008  -0.00145  -0.00024  -0.00137  -0.00161   1.86847
    R2        1.87128  -0.00095  -0.00117   0.00006  -0.00111   1.87017
    R3        3.25615   0.00254   0.09179  -0.01792   0.07387   3.33002
    R4        1.85886   0.00337   0.00028   0.00520   0.00528   1.86414
    R5        1.85886   0.00337   0.00028   0.00520   0.00528   1.86414
    A1        1.75479  -0.00105   0.00113  -0.00342  -0.00229   1.75250
    A2        2.24153  -0.00254   0.00299  -0.01609  -0.01126   2.23027
    A3        2.24153  -0.00233   0.00299  -0.01560  -0.01126   2.23027
    A4        1.75270   0.00466   0.00638   0.00593   0.01435   1.76705
    A5        3.08463  -0.00046  -0.02108  -0.01080  -0.03191   3.05272
    A6        3.14159   0.00000   0.00000   0.00000   0.00000   3.14159
    D1        1.75026  -0.00008  -0.04256   0.04845   0.00593   1.75620
    D2       -1.75026   0.00008   0.04256  -0.04845  -0.00593  -1.75620
    D3        2.83280  -0.00080   0.05789  -0.08303  -0.02576   2.80704
         Item               Value     Threshold  Converged?
 Maximum Force            0.004660     0.000450     NO 
 RMS     Force            0.002199     0.000300     NO 
 Maximum Displacement     0.045022     0.001800     NO 
 RMS     Displacement     0.021849     0.001200     NO 
 Predicted change in Energy=-2.051122D-04
 GradGradGradGradGradGradGradGradGradGradGradGradGradGradGradGradGradGrad

                          Input orientation:                          
 ---------------------------------------------------------------------
 Center     Atomic      Atomic             Coordinates (Angstroms)
 Number     Number       Type             X           Y           Z
 ---------------------------------------------------------------------
      1          1           0        0.151677    0.000000    0.066856
      2          8           0        0.138815    0.000000    1.055524
      3          1           0        1.109766    0.000000    1.247009
      4          8           0        2.862074    0.000000    1.433169
      5          1           0        3.445938    0.762513    1.658516
      6          1           0        3.445938   -0.762513    1.658516
 ---------------------------------------------------------------------
                    Distance matrix (angstroms):
                    1          2          3          4          5
     1  H    0.000000
     2  O    0.988752   0.000000
     3  H    1.520097   0.989653   0.000000
     4  O    3.035303   2.749319   1.762169   0.000000
     5  H    3.737240   3.447040   2.491679   0.986461   0.000000
     6  H    3.737240   3.447040   2.491679   0.986461   1.525026
                    6
     6  H    0.000000
 Stoichiometry    H4O2
 Framework group  CS[SG(H2O2),X(H2)]
 Deg. of freedom     8
 Full point group                 CS      NOp   2
 Largest Abelian subgroup         CS      NOp   2
 Largest concise Abelian subgroup CS      NOp   2
                         Standard orientation:                         
 ---------------------------------------------------------------------
 Center     Atomic      Atomic             Coordinates (Angstroms)
 Number     Number       Type             X           Y           Z
 ---------------------------------------------------------------------
      1          1           0       -0.949127   -1.601900    0.000000
      2          8           0        0.031937   -1.478837    0.000000
      3          1           0        0.088237   -0.490787    0.000000
      4          8           0        0.031937    1.270482    0.000000
      5          1           0        0.174949    1.879765    0.762513
      6          1           0        0.174949    1.879765   -0.762513
 ---------------------------------------------------------------------
 Rotational constants (GHZ):    239.1155440      7.0508473      7.0282583
 Standard basis: STO-3G (5D, 7F)
 There are    11 symmetry adapted basis functions of A'  symmetry.
 There are     3 symmetry adapted basis functions of A"  symmetry.
 Integral buffers will be    131072 words long.
 Raffenetti 1 integral format.
 Two-electron integral symmetry is turned on.
    14 basis functions,    42 primitive gaussians,    14 cartesian basis functions
    10 alpha electrons       10 beta electrons
       nuclear repulsion energy        37.1171904818 Hartrees.
 NAtoms=    6 NActive=    6 NUniq=    5 SFac= 1.44D+00 NAtFMM=   60 NAOKFM=F Big=F
 One-electron integrals computed using PRISM.
 NBasis=    14 RedAO= T  NBF=    11     3
 NBsUse=    14 1.00D-06 NBFU=    11     3
 Initial guess read from the read-write file.
 B after Tr=     0.000000    0.000000    0.000000
         Rot=    1.000000    0.000000    0.000000    0.000000 Ang=   0.00 deg.
 Initial guess orbital symmetries:
       Occupied  (A') (A') (A') (A') (A") (A') (A') (A') (A') (A")
       Virtual   (A') (A') (A") (A')
 Harris functional with IExCor=  205 diagonalized for initial guess.
 ExpMin= 1.69D-01 ExpMax= 1.31D+02 ExpMxC= 1.31D+02 IAcc=1 IRadAn=         1 AccDes= 0.00D+00
 HarFok:  IExCor=  205 AccDes= 0.00D+00 IRadAn=         1 IDoV= 1
 ScaDFX=  1.000000  1.000000  1.000000  1.000000
 FoFCou: FMM=F IPFlag=           0 FMFlag=      100000 FMFlg1=           0
         NFxFlg=           0 DoJE=T BraDBF=F KetDBF=T FulRan=T
         Omega=  0.000000  0.000000  1.000000  0.000000  0.000000 ICntrl=     500 IOpCl=  0
         NMat0=    1 NMatS0=    1 NMatT0=    0 NMatD0=    1 NMtDS0=    0 NMtDT0=    0
         I1Cent=           4 NGrid=           0.
 Petite list used in FoFCou.
 Requested convergence on RMS density matrix=1.00D-08 within 128 cycles.
 Requested convergence on MAX density matrix=1.00D-06.
 Requested convergence on             energy=1.00D-06.
 No special actions if energy rises.
 Keep R1 ints in memory in canonical form, NReq=825356.
 SCF Done:  E(RHF) =  -149.940098826     A.U. after    9 cycles
             Convg  =    0.4841D-08             -V/T =  2.0056
 Calling FoFJK, ICntrl=      2127 FMM=F ISym2X=1 I1Cent= 0 IOpClX= 0 NMat=1 NMatS=1 NMatT=0.
 ***** Axes restored to original set *****
 -------------------------------------------------------------------
 Center     Atomic                   Forces (Hartrees/Bohr)
 Number     Number              X              Y              Z
 -------------------------------------------------------------------
      1        1           0.000395015    0.000000000    0.000381255
      2        8           0.000623223    0.000000000    0.000149610
      3        1          -0.001706587    0.000000000   -0.000040088
      4        8           0.002892419    0.000000000   -0.001204085
      5        1          -0.001102035    0.000292836    0.000356655
      6        1          -0.001102035   -0.000292836    0.000356655
 -------------------------------------------------------------------
 Cartesian Forces:  Max     0.002892419 RMS     0.000951520

 GradGradGradGradGradGradGradGradGradGradGradGradGradGradGradGradGradGrad
 Berny optimization.
 Using GEDIIS/GDIIS optimizer.
 Internal  Forces:  Max     0.001176893 RMS     0.000646399
 Search for a local minimum.
 Step number   6 out of a maximum of   24
 All quantities printed in internal units (Hartrees-Bohrs-Radians)
 Mixed Optimization -- En-DIIS/RFO-DIIS
 Update second derivatives using D2CorX and points    2    3    4    5    6
 DE= -2.46D-04 DEPred=-2.05D-04 R= 1.20D+00
 SS=  1.41D+00  RLast= 8.79D-02 DXNew= 2.0835D+00 2.6382D-01
 Trust test= 1.20D+00 RLast= 8.79D-02 DXMaxT set to 1.24D+00
 The second derivative matrix:
                          R1        R2        R3        R4        R5
           R1           0.50368
           R2           0.02793   0.51674
           R3          -0.00015   0.01099   0.02235
           R4          -0.01322  -0.00180   0.00516   0.51960
           R5          -0.01322  -0.00180   0.00516   0.04272   0.51960
           A1           0.05857   0.06940   0.00554  -0.00941  -0.00941
           A2          -0.00364  -0.00833  -0.00713   0.00251   0.00251
           A3          -0.00361  -0.00867  -0.00699   0.00194   0.00194
           A4          -0.00971   0.00163   0.00734   0.03425   0.03425
           A5          -0.00069   0.00331   0.00233  -0.00226  -0.00226
           A6           0.00000   0.00000   0.00000   0.00000   0.00000
           D1          -0.00027  -0.00296  -0.00238  -0.00622  -0.00622
           D2           0.00027   0.00296   0.00238   0.00622   0.00622
           D3          -0.00370  -0.00218  -0.00280   0.00484   0.00484
                          A1        A2        A3        A4        A5
           A1           0.29366
           A2          -0.00889   0.14527
           A3          -0.00907  -0.01438   0.14599
           A4          -0.01178  -0.00326  -0.00362   0.17649
           A5          -0.00395  -0.00004  -0.00013  -0.00491   0.00741
           A6           0.00000   0.00000   0.00000   0.00000   0.00000
           D1          -0.00375   0.00333   0.00334  -0.00530   0.00015
           D2           0.00375  -0.00333  -0.00334   0.00530  -0.00015
           D3          -0.00449  -0.00893  -0.00884   0.00639  -0.00012
                          A6        D1        D2        D3
           A6           0.00230
           D1           0.00000   0.00271
           D2           0.00000  -0.00041   0.00271
           D3           0.00000   0.00067  -0.00067   0.00726
 ITU=  1  1  1  1  1  0
 Use linear search instead of GDIIS.
     Eigenvalues ---    0.00230   0.00230   0.00291   0.00707   0.02124
     Eigenvalues ---    0.15751   0.16349   0.26365   0.47688   0.47953
     Eigenvalues ---    0.55261   0.58571
 RFO step:  Lambda=-2.96546262D-04 EMin= 2.30000000D-03
 Quartic linear search produced a step of  0.46312.
 Iteration  1 RMS(Cart)=  0.03690202 RMS(Int)=  0.00790477
 Iteration  2 RMS(Cart)=  0.00479617 RMS(Int)=  0.00417821
 Iteration  3 RMS(Cart)=  0.00003318 RMS(Int)=  0.00417790
 Iteration  4 RMS(Cart)=  0.00000020 RMS(Int)=  0.00417790
 ClnCor:  largest displacement from symmetrization is 5.23D-04 for atom     6.
 Variable       Old X    -DE/DX   Delta X   Delta X   Delta X     New X
                                 (Linear)    (Quad)   (Total)
    R1        1.86847  -0.00038  -0.00075  -0.00116  -0.00191   1.86656
    R2        1.87017  -0.00110  -0.00051  -0.00177  -0.00233   1.86784
    R3        3.33002   0.00063   0.03421  -0.02512   0.00912   3.33914
    R4        1.86414  -0.00034   0.00245   0.00132   0.00361   1.86775
    R5        1.86414  -0.00034   0.00245   0.00132   0.00361   1.86775
    A1        1.75250  -0.00075  -0.00106  -0.00314  -0.00420   1.74831
    A2        2.23027  -0.00082  -0.00522  -0.03654  -0.04968   2.18059
    A3        2.23027  -0.00061  -0.00522  -0.03516  -0.04968   2.18059
    A4        1.76705   0.00118   0.00664   0.00082  -0.00136   1.76569
    A5        3.05272  -0.00031  -0.01478  -0.01212  -0.02573   3.02699
    A6        3.14159   0.00000   0.00000   0.00000   0.00000   3.14159
    D1        1.75620   0.00030   0.00275   0.12777   0.12810   1.88429
    D2       -1.75620  -0.00030  -0.00275  -0.12777  -0.12810  -1.88429
    D3        2.80704  -0.00077  -0.01193  -0.21037  -0.22028   2.58676
         Item               Value     Threshold  Converged?
 Maximum Force            0.001177     0.000450     NO 
 RMS     Force            0.000646     0.000300     NO 
 Maximum Displacement     0.117379     0.001800     NO 
 RMS     Displacement     0.040203     0.001200     NO 
 Predicted change in Energy=-1.053987D-04
 GradGradGradGradGradGradGradGradGradGradGradGradGradGradGradGradGradGrad

                          Input orientation:                          
 ---------------------------------------------------------------------
 Center     Atomic      Atomic             Coordinates (Angstroms)
 Number     Number       Type             X           Y           Z
 ---------------------------------------------------------------------
      1          1           0        0.154825    0.000000    0.075925
      2          8           0        0.146948    0.000000    1.063635
      3          1           0        1.118414    0.000000    1.245921
      4          8           0        2.880972    0.000000    1.371054
      5          1           0        3.426393    0.763564    1.681481
      6          1           0        3.426393   -0.763564    1.681481
 ---------------------------------------------------------------------
                    Distance matrix (angstroms):
                    1          2          3          4          5
     1  H    0.000000
     2  O    0.987741   0.000000
     3  H    1.515715   0.988420   0.000000
     4  O    3.018151   2.751253   1.766994   0.000000
     5  H    3.723439   3.423379   2.469719   0.988372   0.000000
     6  H    3.723439   3.423379   2.469719   0.988372   1.527127
                    6
     6  H    0.000000
 Stoichiometry    H4O2
 Framework group  CS[SG(H2O2),X(H2)]
 Deg. of freedom     8
 Full point group                 CS      NOp   2
 Largest Abelian subgroup         CS      NOp   2
 Largest concise Abelian subgroup CS      NOp   2
                         Standard orientation:                         
 ---------------------------------------------------------------------
 Center     Atomic      Atomic             Coordinates (Angstroms)
 Number     Number       Type             X           Y           Z
 ---------------------------------------------------------------------
      1          1           0       -0.961667   -1.579994    0.000000
      2          8           0        0.020737   -1.477456    0.000000
      3          1           0        0.093331   -0.491706    0.000000
      4          8           0        0.020737    1.273797    0.000000
      5          1           0        0.268275    1.850489    0.763564
      6          1           0        0.268275    1.850489   -0.763564
 ---------------------------------------------------------------------
 Rotational constants (GHZ):    231.1266054      7.0629450      7.0468158
 Standard basis: STO-3G (5D, 7F)
 There are    11 symmetry adapted basis functions of A'  symmetry.
 There are     3 symmetry adapted basis functions of A"  symmetry.
 Integral buffers will be    131072 words long.
 Raffenetti 1 integral format.
 Two-electron integral symmetry is turned on.
    14 basis functions,    42 primitive gaussians,    14 cartesian basis functions
    10 alpha electrons       10 beta electrons
       nuclear repulsion energy        37.1253551765 Hartrees.
 NAtoms=    6 NActive=    6 NUniq=    5 SFac= 1.44D+00 NAtFMM=   60 NAOKFM=F Big=F
 One-electron integrals computed using PRISM.
 NBasis=    14 RedAO= T  NBF=    11     3
 NBsUse=    14 1.00D-06 NBFU=    11     3
 Initial guess read from the read-write file.
 B after Tr=     0.000000    0.000000    0.000000
         Rot=    1.000000    0.000000    0.000000    0.000000 Ang=   0.00 deg.
 Initial guess orbital symmetries:
       Occupied  (A') (A') (A') (A') (A") (A') (A') (A') (A') (A")
       Virtual   (A') (A') (A") (A')
 Harris functional with IExCor=  205 diagonalized for initial guess.
 ExpMin= 1.69D-01 ExpMax= 1.31D+02 ExpMxC= 1.31D+02 IAcc=1 IRadAn=         1 AccDes= 0.00D+00
 HarFok:  IExCor=  205 AccDes= 0.00D+00 IRadAn=         1 IDoV= 1
 ScaDFX=  1.000000  1.000000  1.000000  1.000000
 FoFCou: FMM=F IPFlag=           0 FMFlag=      100000 FMFlg1=           0
         NFxFlg=           0 DoJE=T BraDBF=F KetDBF=T FulRan=T
         Omega=  0.000000  0.000000  1.000000  0.000000  0.000000 ICntrl=     500 IOpCl=  0
         NMat0=    1 NMatS0=    1 NMatT0=    0 NMatD0=    1 NMtDS0=    0 NMtDT0=    0
         I1Cent=           4 NGrid=           0.
 Petite list used in FoFCou.
 Requested convergence on RMS density matrix=1.00D-08 within 128 cycles.
 Requested convergence on MAX density matrix=1.00D-06.
 Requested convergence on             energy=1.00D-06.
 No special actions if energy rises.
 Keep R1 ints in memory in canonical form, NReq=825356.
 SCF Done:  E(RHF) =  -149.940438280     A.U. after   10 cycles
             Convg  =    0.4582D-08             -V/T =  2.0057
 Calling FoFJK, ICntrl=      2127 FMM=F ISym2X=1 I1Cent= 0 IOpClX= 0 NMat=1 NMatS=1 NMatT=0.
 ***** Axes restored to original set *****
 -------------------------------------------------------------------
 Center     Atomic                   Forces (Hartrees/Bohr)
 Number     Number              X              Y              Z
 -------------------------------------------------------------------
      1        1          -0.000221129    0.000000000   -0.000793351
      2        8          -0.000262439    0.000000000    0.000693124
      3        1           0.000189110    0.000000000    0.000557723
      4        8           0.004604037    0.000000000    0.000054330
      5        1          -0.002154790   -0.001478521   -0.000255913
      6        1          -0.002154790    0.001478521   -0.000255913
 -------------------------------------------------------------------
 Cartesian Forces:  Max     0.004604037 RMS     0.001425245

 GradGradGradGradGradGradGradGradGradGradGradGradGradGradGradGradGradGrad
 Berny optimization.
 Using GEDIIS/GDIIS optimizer.
 Internal  Forces:  Max     0.002411699 RMS     0.001061514
 Search for a local minimum.
 Step number   7 out of a maximum of   24
 All quantities printed in internal units (Hartrees-Bohrs-Radians)
 Mixed Optimization -- RFO/linear search
 Update second derivatives using D2CorX and points    5    6    7
 DE= -3.39D-04 DEPred=-1.05D-04 R= 3.22D+00
 SS=  1.41D+00  RLast= 2.95D-01 DXNew= 2.0835D+00 8.8527D-01
 Trust test= 3.22D+00 RLast= 2.95D-01 DXMaxT set to 1.24D+00
 The second derivative matrix:
                          R1        R2        R3        R4        R5
           R1           1.67761
           R2           1.62818   2.69827
           R3          -0.37954  -0.50426   0.14435
           R4          -2.09971  -2.84631   0.68234   4.22678
           R5          -2.09971  -2.84631   0.68234   3.74989   4.22678
           A1           1.23359   1.67128  -0.37340  -2.09784  -2.09784
           A2          -0.07349  -0.10927   0.02113   0.11702   0.11702
           A3           0.07961   0.09911  -0.02810  -0.15556  -0.15556
           A4          -0.27399  -0.35939   0.09818   0.50135   0.50135
           A5           0.51543   0.70707  -0.16433  -0.91932  -0.91932
           A6           0.00000   0.00000   0.00000   0.00000   0.00000
           D1           0.11152   0.14914  -0.03847  -0.20536  -0.20536
           D2          -0.11152  -0.14914   0.03847   0.20536   0.20536
           D3          -0.06471  -0.08605   0.01781   0.11204   0.11204
                          A1        A2        A3        A4        A5
           A1           1.46987
           A2          -0.08103   0.12028
           A3           0.07204  -0.04868   0.12234
           A4          -0.27639  -0.00614  -0.04088   0.23056
           A5           0.51274  -0.03077   0.03645  -0.12064   0.23435
           A6           0.00000   0.00000   0.00000   0.00000   0.00000
           D1           0.10802  -0.00404   0.01053  -0.03127   0.04927
           D2          -0.10802   0.00404  -0.01053   0.03127  -0.04927
           D3          -0.06582  -0.00948  -0.01737   0.01772  -0.02693
                          A6        D1        D2        D3
           A6           0.00230
           D1           0.00000   0.01335
           D2           0.00000  -0.01105   0.01335
           D3           0.00000  -0.00526   0.00526   0.00984
 ITU=  1  1  1  1  1  1  0
 Use linear search instead of GDIIS.
     Eigenvalues ---    0.00020   0.00230   0.00230   0.01435   0.02764
     Eigenvalues ---    0.15315   0.16192   0.26731   0.47688   0.48159
     Eigenvalues ---    0.55354  12.93525
 RFO step:  Lambda=-1.07431043D-03 EMin= 1.97119065D-04
 Skip linear search -- no minimum in search direction.
 Iteration  1 RMS(Cart)=  0.06273189 RMS(Int)=  0.14235519
 Iteration  2 RMS(Cart)=  0.06224650 RMS(Int)=  0.06193736
 Iteration  3 RMS(Cart)=  0.03648733 RMS(Int)=  0.04362233
 Iteration  4 RMS(Cart)=  0.00458856 RMS(Int)=  0.04344923
 Iteration  5 RMS(Cart)=  0.00030742 RMS(Int)=  0.04344798
 Iteration  6 RMS(Cart)=  0.00003467 RMS(Int)=  0.04344797
 Iteration  7 RMS(Cart)=  0.00000282 RMS(Int)=  0.04344797
 Iteration  8 RMS(Cart)=  0.00000029 RMS(Int)=  0.04344797
 ClnCor:  largest displacement from symmetrization is 6.86D-02 for atom     6.
 Variable       Old X    -DE/DX   Delta X   Delta X   Delta X     New X
                                 (Linear)    (Quad)   (Total)
    R1        1.86656   0.00079   0.00000  -0.00541  -0.00545   1.86111
    R2        1.86784   0.00050   0.00000  -0.00920  -0.01000   1.85784
    R3        3.33914   0.00026   0.00000   0.05005   0.05041   3.38955
    R4        1.86775  -0.00241   0.00000   0.00717   0.01983   1.88759
    R5        1.86775  -0.00241   0.00000   0.00717   0.01983   1.88759
    A1        1.74831   0.00042   0.00000  -0.01615  -0.01611   1.73219
    A2        2.18059  -0.00089   0.00000  -0.18659  -0.23602   1.94456
    A3        2.18059  -0.00053   0.00000  -0.18710  -0.23602   1.94456
    A4        1.76569   0.00093   0.00000  -0.01751  -0.12042   1.64527
    A5        3.02699   0.00020   0.00000  -0.07529  -0.06283   2.96415
[...]
 and normal coordinates:
                     1                      2                      3
                    A"                     A'                     A'
 Frequencies --   115.3645               243.1368               281.1907
 Red. masses --     1.0478                 1.5063                 2.2903
 Frc consts  --     0.0082                 0.0525                 0.1067
 IR Inten    --   108.6781                62.8295               127.2909
 Raman Activ --    10.9404                 0.3936                 0.5194
 Depolar (P) --     0.7500                 0.7499                 0.6549
 Depolar (U) --     0.8571                 0.8571                 0.7915
  Atom  AN      X      Y      Z        X      Y      Z        X      Y      Z
     1   1     0.00   0.00   0.80     0.09  -0.21   0.00    -0.09   0.62   0.00
     2   8     0.00   0.00  -0.04     0.02   0.16   0.00    -0.01   0.16   0.00
     3   1     0.00   0.00  -0.12    -0.33   0.15   0.00     0.43   0.16   0.00
     4   8     0.00   0.00  -0.03    -0.04  -0.08   0.00     0.03  -0.24   0.00
     5   1    -0.35  -0.01   0.22     0.28  -0.56   0.00    -0.31   0.24   0.01
     6   1     0.35   0.01   0.22     0.28  -0.56   0.00    -0.31   0.24  -0.01
                     4                      5                      6
                    A"                     A'                     A"
 Frequencies --   288.8511               472.5608               735.4725
 Red. masses --     1.0531                 1.1415                 1.0458
 Frc consts  --     0.0518                 0.1502                 0.3333
 IR Inten    --     0.8816                79.0408               122.4530
 Raman Activ --    13.1327                 6.3263                 0.9673
 Depolar (P) --     0.7500                 0.7408                 0.7500
 Depolar (U) --     0.8571                 0.8511                 0.8571
  Atom  AN      X      Y      Z        X      Y      Z        X      Y      Z
     1   1     0.00   0.00  -0.03    -0.11   0.60   0.00     0.00   0.00   0.05
     2   8     0.00   0.00   0.04     0.01  -0.05   0.00     0.00   0.00  -0.03
     3   1     0.00   0.00  -0.37     0.58  -0.04   0.00     0.00   0.00   0.93
     4   8     0.00   0.00  -0.04    -0.06   0.05   0.00     0.00   0.00  -0.04
     5   1     0.13  -0.62   0.16     0.20  -0.32  -0.01     0.01  -0.25   0.07
     6   1    -0.13   0.62   0.16     0.20  -0.32   0.01    -0.01   0.25   0.07
                     7                      8                      9
                    A'                     A'                     A'
 Frequencies --  2147.5352              2201.4159              4133.8626
 Red. masses --     1.0811                 1.0738                 1.0484
 Frc consts  --     2.9376                 3.0662                10.5553
 IR Inten    --    12.6250                12.6614               179.7635
 Raman Activ --    11.1161                 6.6100                80.8872
 Depolar (P) --     0.7248                 0.7142                 0.2356
 Depolar (U) --     0.8405                 0.8333                 0.3814
  Atom  AN      X      Y      Z        X      Y      Z        X      Y      Z
     1   1    -0.02   0.09   0.00    -0.13   0.65   0.00    -0.67  -0.17   0.00
     2   8     0.01  -0.01   0.00     0.05  -0.04   0.00     0.04  -0.03   0.00
     3   1    -0.09   0.01   0.00    -0.74   0.00   0.00     0.05   0.72   0.00
     4   8     0.06   0.04   0.00     0.00  -0.01   0.00     0.00   0.00   0.00
     5   1    -0.44  -0.31   0.44     0.05   0.05  -0.06    -0.02  -0.01  -0.04
     6   1    -0.44  -0.31  -0.44     0.05   0.05   0.06    -0.02  -0.01   0.04
                    10                     11                     12
                    A'                     A'                     A"
 Frequencies --  4172.3105              4377.7997              4417.8570
 Red. masses --     1.0491                 1.0770                 1.0781
 Frc consts  --    10.7598                12.1608                12.3976
 IR Inten    --    18.6044                70.2485                10.2944
 Raman Activ --    56.1058                35.2204                25.5594
 Depolar (P) --     0.1280                 0.6905                 0.7500
 Depolar (U) --     0.2269                 0.8169                 0.8571
  Atom  AN      X      Y      Z        X      Y      Z        X      Y      Z
     1   1    -0.06  -0.01   0.00     0.71   0.14   0.00     0.00   0.00   0.00
     2   8     0.00   0.00   0.00    -0.04  -0.05   0.00     0.00   0.00   0.00
     3   1     0.00   0.04   0.00    -0.01   0.69   0.00     0.00   0.00   0.00
     4   8    -0.04  -0.03   0.00     0.00   0.00   0.00     0.00   0.00   0.07
     5   1     0.34   0.23   0.57     0.01   0.01   0.01    -0.37  -0.25  -0.54
     6   1     0.34   0.23  -0.57     0.01   0.01  -0.01     0.37   0.25  -0.54

 -------------------
 - Thermochemistry -
 -------------------
 Temperature   298.150 Kelvin.  Pressure   1.00000 Atm.
 Atom     1 has atomic number  1 and mass   1.00783
 Atom     2 has atomic number  8 and mass  15.99491
 Atom     3 has atomic number  1 and mass   1.00783
 Atom     4 has atomic number  8 and mass  15.99491
 Atom     5 has atomic number  1 and mass   1.00783
 Atom     6 has atomic number  1 and mass   1.00783
 Molecular mass:    36.02113 amu.
 Principal axes and moments of inertia in atomic units:
                           1         2         3
     Eigenvalues --     8.93510 249.40774 250.00296
           X            0.04944   0.99878   0.00000
           Y            0.99878  -0.04944   0.00000
           Z            0.00000   0.00000   1.00000
 This molecule is an asymmetric top.
 Rotational symmetry number  1.
 Rotational temperatures (Kelvin)      9.69366     0.34728     0.34645
 Rotational constants (GHZ):         201.98333     7.23611     7.21888
 Zero-point vibrational energy     141083.7 (Joules/Mol)
                                   33.71982 (Kcal/Mol)
 Warning -- explicit consideration of   5 degrees of freedom as
           vibrations may cause significant error
 Vibrational temperatures:    165.98   349.82   404.57   415.59   679.91
          (Kelvin)           1058.18  3089.82  3167.34  5947.70  6003.02
                             6298.67  6356.30
 
 Zero-point correction=                           0.053736 (Hartree/Particle)
 Thermal correction to Energy=                    0.058994
 Thermal correction to Enthalpy=                  0.059938
 Thermal correction to Gibbs Free Energy=         0.028301
 Sum of electronic and zero-point Energies=           -149.887508
 Sum of electronic and thermal Energies=              -149.882251
 Sum of electronic and thermal Enthalpies=            -149.881306
 Sum of electronic and thermal Free Energies=         -149.912943
 
                     E (Thermal)             CV                S
                      KCal/Mol        Cal/Mol-Kelvin    Cal/Mol-Kelvin
 Total                   37.019             15.161             66.585
 Electronic               0.000              0.000              0.000
 Translational            0.889              2.981             36.674
 Rotational               0.889              2.981             20.949
 Vibrational             35.242              9.200              8.962
 Vibration     1          0.608              1.937              3.177
 Vibration     2          0.659              1.774              1.780
 Vibration     3          0.681              1.708              1.526
 Vibration     4          0.685              1.694              1.481
 Vibration     5          0.829              1.311              0.730
                       Q            Log10(Q)             Ln(Q)
 Total Bot       0.960278D-13        -13.017603        -29.974139
 Total V=0       0.500227D+12         11.699167         26.938328
 Vib (Bot)       0.133746D-23        -23.873718        -54.971267
 Vib (Bot)    1  0.177327D+01          0.248776          0.572827
 Vib (Bot)    2  0.805304D+00         -0.094040         -0.216535
 Vib (Bot)    3  0.683312D+00         -0.165381         -0.380804
 Vib (Bot)    4  0.662462D+00         -0.178839         -0.411792
 Vib (Bot)    5  0.356166D+00         -0.448348         -1.032359
 Vib (V=0)       0.696710D+01          0.843052          1.941199
 Vib (V=0)    1  0.234242D+01          0.369664          0.851183
 Vib (V=0)    2  0.144790D+01          0.160739          0.370114
 Vib (V=0)    3  0.134671D+01          0.129274          0.297663
 Vib (V=0)    4  0.132997D+01          0.123843          0.285159
 Vib (V=0)    5  0.111388D+01          0.046840          0.107853
 Electronic      0.100000D+01          0.000000          0.000000
 Translational   0.849750D+07          6.929291         15.955283
 Rotational      0.844936D+04          3.926824          9.041846
 ***** Axes restored to original set *****
 -------------------------------------------------------------------
 Center     Atomic                   Forces (Hartrees/Bohr)
 Number     Number              X              Y              Z
 -------------------------------------------------------------------
      1        1           0.000004748    0.000000000    0.000094313
      2        8           0.000045267    0.000000000   -0.000099750
      3        1          -0.000049404    0.000000000    0.000001904
      4        8          -0.000025428    0.000000000   -0.000024101
      5        1           0.000012409    0.000072465    0.000013817
      6        1           0.000012409   -0.000072465    0.000013817
 -------------------------------------------------------------------
 Cartesian Forces:  Max     0.000099750 RMS     0.000044585

 GradGradGradGradGradGradGradGradGradGradGradGradGradGradGradGradGradGrad
 Berny optimization.
 Internal  Forces:  Max     0.000093978 RMS     0.000040582
 Search for a local minimum.
 Step number   1 out of a maximum of    2
 All quantities printed in internal units (Hartrees-Bohrs-Radians)
 Second derivative matrix not updated -- analytic derivatives used.
 The second derivative matrix:
                          R1        R2        R3        R4        R5
           R1           0.65254
           R2          -0.03031   0.65395
           R3          -0.00108   0.01390   0.02442
           R4          -0.00036  -0.00087  -0.00192   0.66316
           R5          -0.00036  -0.00087  -0.00192  -0.02947   0.66316
           A1           0.03952   0.03345   0.00428  -0.00035  -0.00035
           A2          -0.00073   0.00063  -0.00092  -0.00433  -0.00564
           A3          -0.00028   0.00037  -0.00109  -0.00719  -0.00634
           A4           0.00003  -0.00062   0.00355   0.02317   0.02313
           A5          -0.00174  -0.00149   0.00125   0.00299   0.00296
           A6           0.00000   0.00000   0.00000  -0.00076   0.00076
           D1           0.00006   0.00006  -0.00144  -0.01020  -0.01052
           D2          -0.00006  -0.00006   0.00144   0.01067   0.01005
           D3          -0.00061   0.00035   0.00024   0.00223   0.00263
                          A1        A2        A3        A4        A5
           A1           0.28356
           A2          -0.00025   0.02401
           A3          -0.00002   0.00559   0.01713
           A4          -0.00032  -0.03423  -0.03857   0.12018
           A5          -0.00583  -0.00054  -0.00304   0.01216   0.01648
           A6           0.00000  -0.00235   0.00151  -0.00006  -0.00006
           D1          -0.00038   0.01279   0.01634  -0.05088  -0.00446
           D2           0.00038  -0.01194  -0.01688   0.05090   0.00448
           D3          -0.00030  -0.00175   0.00154   0.00519   0.00273
                          A6        D1        D2        D3
           A6           0.00709
           D1          -0.00031   0.02235
           D2          -0.00084  -0.02183   0.02254
           D3           0.00072  -0.00289   0.00263   0.00380
 ITU=  0
     Eigenvalues ---    0.00050   0.00518   0.00655   0.01512   0.01907
     Eigenvalues ---    0.02406   0.18332   0.27599   0.63050   0.63767
     Eigenvalues ---    0.68379   0.69264
 Angle between quadratic step and forces=  71.50 degrees.
 Linear search not attempted -- first point.
 Iteration  1 RMS(Cart)=  0.00021488 RMS(Int)=  0.00000009
 Iteration  2 RMS(Cart)=  0.00000006 RMS(Int)=  0.00000007
 ClnCor:  largest displacement from symmetrization is 1.40D-07 for atom     6.
 Variable       Old X    -DE/DX   Delta X   Delta X   Delta X     New X
                                 (Linear)    (Quad)   (Total)
    R1        1.86733  -0.00009   0.00000  -0.00015  -0.00015   1.86718
    R2        1.87005  -0.00005   0.00000  -0.00009  -0.00009   1.86997
    R3        3.30755   0.00000   0.00000  -0.00003  -0.00003   3.30752
    R4        1.86518   0.00007   0.00000   0.00009   0.00009   1.86527
    R5        1.86518   0.00007   0.00000   0.00009   0.00009   1.86527
    A1        1.75211   0.00002   0.00000   0.00010   0.00010   1.75221
    A2        1.93494  -0.00001   0.00000   0.00039   0.00039   1.93533
    A3        1.93494  -0.00001   0.00000   0.00039   0.00039   1.93533
    A4        1.76128   0.00004   0.00000   0.00020   0.00020   1.76148
    A5        3.14665   0.00001   0.00000   0.00011   0.00011   3.14676
    A6        3.14159   0.00000   0.00000   0.00000   0.00000   3.14159
    D1        2.17150  -0.00002   0.00000  -0.00032  -0.00032   2.17118
    D2       -2.17150   0.00002   0.00000   0.00032   0.00032  -2.17118
    D3        2.05066   0.00001   0.00000   0.00071   0.00071   2.05138
         Item               Value     Threshold  Converged?
 Maximum Force            0.000094     0.000450     YES
 RMS     Force            0.000041     0.000300     YES
 Maximum Displacement     0.000396     0.001800     YES
 RMS     Displacement     0.000215     0.001200     YES
 Predicted change in Energy=-2.560948D-08
 Optimization completed.
    -- Stationary point found.
                           ----------------------------
                           !   Optimized Parameters   !
                           ! (Angstroms and Degrees)  !
 --------------------------                            --------------------------
 ! Name  Definition              Value          Derivative Info.                !
 --------------------------------------------------------------------------------
 ! R1    R(1,2)                  0.9881         -DE/DX =   -0.0001              !
 ! R2    R(2,3)                  0.9896         -DE/DX =    0.0                 !
 ! R3    R(3,4)                  1.7503         -DE/DX =    0.0                 !
 ! R4    R(4,5)                  0.987          -DE/DX =    0.0001              !
 ! R5    R(4,6)                  0.987          -DE/DX =    0.0001              !
 ! A1    A(1,2,3)              100.3886         -DE/DX =    0.0                 !
 ! A2    A(3,4,5)              110.8641         -DE/DX =    0.0                 !
 ! A3    A(3,4,6)              110.8641         -DE/DX =    0.0                 !
 ! A4    A(5,4,6)              100.9141         -DE/DX =    0.0                 !
 ! A5    L(2,3,4,1,-1)         180.2896         -DE/DX =    0.0                 !
 ! A6    L(2,3,4,1,-2)         180.0            -DE/DX =    0.0                 !
 ! D1    D(1,2,4,5)            124.4178         -DE/DX =    0.0                 !
 ! D2    D(1,2,4,6)           -124.4178         -DE/DX =    0.0                 !
 ! D3    D(3,4,5,6)            117.4943         -DE/DX =    0.0                 !
 --------------------------------------------------------------------------------
 GradGradGradGradGradGradGradGradGradGradGradGradGradGradGradGradGradGrad

 1\1\GINC-NODE47\Freq\RHF\STO-3G\H4O2\cn410101\01-Sep-2018\0\\#N Geom=A
 llCheck Guess=TCheck SCRF=Check GenChk RHF/STO-3G Freq\\Water Dimer Op
 timization\\0,1\H,0.1033979664,0.,0.1394675781\O,0.2495013339,0.,1.116
 7546454\H,1.2385554767,0.,1.1493209926\O,2.9875721096,0.,1.2157621361\
 H,3.319072239,0.7611294692,1.7495937926\H,3.319072239,-0.7611294692,1.
 7495937926\\Version=EM64L-G09RevC.01\State=1-A'\HF=-149.9412443\RMSD=2
 .706e-10\RMSF=4.458e-05\ZeroPoint=0.053736\Thermal=0.0589938\Dipole=1.
 0991863,0.,0.1621243\DipoleDeriv=0.1643433,0.,0.0302128,0.,0.254643,0.
 ,-0.0461518,0.,-0.2495107,-0.2053682,0.,-0.081975,0.,-0.5988259,0.,-0.
 0226594,0.,0.0044859,0.3981137,0.,0.1642972,0.,0.2921827,0.,0.0849231,
 0.,0.202523,-0.7594091,0.,0.152847,0.,-0.0663718,0.,0.2874843,0.,-0.11
 29845,0.2011602,-0.0973969,-0.132691,-0.0713577,0.059186,-0.121672,-0.
 1517981,-0.1686949,0.0777431,0.2011602,0.0973969,-0.132691,0.0713577,0
 .059186,0.121672,-0.1517981,0.1686949,0.0777431\Polar=6.2519067,0.,5.4
 312153,3.1255787,0.,5.8446882\PolarDeriv=-1.194684,0.,-0.033737,-1.955
 6648,0.,0.129747,0.,-0.7780413,0.,0.,-2.0578438,0.,-0.6682968,0.,-0.02
 41261,-1.5605709,0.,-5.6701592,-6.5603744,0.,0.0265346,0.2763688,0.,-0
 .7162943,0.,-1.2845312,0.,0.,1.4642815,0.,1.0693038,0.,-0.0119215,-0.2
 86906,0.,4.8878754,8.6694449,0.,-0.1187837,2.1592074,0.,0.7910777,0.,1
 .6044298,0.,0.,0.4675059,0.,-0.2885746,0.,0.0479132,1.4793913,0.,0.525
 0922,-3.8944545,0.,-1.4685588,-2.6704636,0.,-0.6177455,0.,-1.7145609,0
 .,0.,-2.4288241,0.,-0.5282939,0.,-2.6494806,-1.5018326,0.,-3.831153,1.
 490034,2.1290266,0.7972724,1.0952761,0.197835,0.2066075,0.3716565,1.08
 63518,4.3713486,0.2259484,1.2774402,0.2097463,0.2079308,0.2390215,1.31
 88075,0.9349591,2.091553,2.0441724,1.490034,-2.1290266,0.7972724,1.095
 2761,-0.197835,0.2066075,-0.3716565,1.0863518,-4.3713486,-0.2259484,1.
 2774402,-0.2097463,0.2079308,-0.2390215,1.3188075,0.9349591,-2.091553,
 2.0441724\HyperPolar=-5.5969381,0.,4.726767,0.,-1.892732,0.,6.2602296,
 -0.679021,0.,-6.1141411\PG=CS [SG(H2O2),X(H2)]\NImag=0\\0.10004879,0.,
 0.00040905,0.10376376,0.,0.63386682,-0.08962553,0.,-0.13668872,0.73130
 999,0.,-0.00090825,0.,0.,0.00643558,-0.01812605,0.,-0.62539092,0.08827
 322,0.,0.70771080,-0.00827824,0.,0.03154270,-0.63000061,0.,-0.06636203
 ,0.64881878,0.,0.00099448,0.,0.,-0.00977671,0.,0.,0.01748512,-0.086662
 01,0.,-0.00924140,0.04990545,0.,-0.08549601,0.03544002,0.,0.10171716,-
 0.00251268,0.,0.00032428,-0.01086274,0.,-0.00442470,-0.01482890,0.,0.0
 0728173,0.22012930,0.,-0.00045015,0.,0.,0.00411050,0.,0.,-0.00966007,0
 .,0.,0.83096340,0.00085274,0.,0.00084480,-0.00201745,0.,0.00321258,-0.
 00581769,0.,-0.00691027,0.28685564,0.,0.45708086,0.00018382,-0.0002921
 3,0.00052899,-0.00041056,0.00142427,0.00031978,0.00214449,-0.00419742,
 -0.00298260,-0.09596249,-0.17510157,-0.13993662,0.08861067,0.00017060,
 -0.00002256,0.00021883,0.00078920,0.00006944,0.00016975,-0.00134188,0.
 00047858,-0.00033297,-0.11643828,-0.41248184,-0.18920592,0.14749360,0.
 44704207,0.00008578,-0.00025658,-0.00003965,0.00026375,0.00066435,-0.0
 0001823,0.00259850,-0.00049410,-0.00003474,-0.14501847,-0.28883728,-0.
 22711399,0.13381258,0.23903696,0.21505873,0.00018382,0.00029213,0.0005
 2899,-0.00041056,-0.00142427,0.00031978,0.00214449,0.00419742,-0.00298
 260,-0.09596249,0.17510157,-0.13993662,0.00543408,-0.03067325,0.008257
 86,0.08861067,-0.00017060,-0.00002256,-0.00021883,-0.00078920,0.000069
 44,-0.00016975,0.00134188,0.00047858,0.00033297,0.11643828,-0.41248184
 ,0.18920592,0.03067325,-0.03508570,0.04988665,-0.14749360,0.44704207,0
 .00008578,0.00025658,-0.00003965,0.00026375,-0.00066435,-0.00001823,0.
 00259850,0.00049410,-0.00003474,-0.14501847,0.28883728,-0.22711399,0.0
 0825786,-0.04988665,0.01214787,0.13381258,-0.23903696,0.21505873\\-0.0
 0000475,0.,-0.00009431,-0.00004527,0.,0.00009975,0.00004940,0.,-0.0000
 0190,0.00002543,0.,0.00002410,-0.00001241,-0.00007246,-0.00001382,-0.0
 0001241,0.00007246,-0.00001382\\\@


 ACCORDING TO HEN3RY, LIFE IS MUCH LIKE A SEWER........
 YOU GET OUT OF IT JUST WHAT YOU PUT INTO IT...........
                         TOM LEHRER - (THE 3 IS SILENT)
 Job cpu time:  0 days  0 hours  0 minutes  3.1 seconds.
 File lengths (MBytes):  RWF=      5 Int=      0 D2E=      0 Chk=      1 Scr=      1
 Normal termination of Gaussian 09 at Sat Sep  1 15:55:37 2018.
